ITEM: TIMESTEP
0
ITEM: NUMBER OF ATOMS
877
ITEM: BOX BOUNDS pp pp pp
0.0000000000000000e+00 1.0990000000000000e+01
0.0000000000000000e+00 6.0445000000000000e+01
0.0000000000000000e+00 6.0445000000000000e+01
ITEM: ATOMS id type x y z
2 5 0.311929 2.97565 2.36693
4 5 3.19476 0.324697 2.76858
5 5 4.62884 1.77693 4.12764
6 5 1.73532 1.44207 1.19852
7 5 4.25325 4.22369 1.02814
8 5 0.485212 0.377151 5.59106
10 5 2.97976 3.12895 5.36395
13 5 1.82529 1.80724 7.02251
73 5 2.96223 5.36151 2.79878
74 5 1.70325 6.68988 1.16339
254 4 3.31505 4.70215 6.04868
255 2 1.78874 3.0227 4.29808
256 2 3.36342 5.4438 5.23975
257 2 1.30162 4.23589 2.83513
258 2 4.34328 6.67055 2.8271
378 5 5.80407 2.97347 2.36705
380 5 8.69146 0.32679 2.77053
381 5 10.1259 1.7811 4.12766
382 5 7.22849 1.44019 1.19936
383 5 9.74811 4.22319 1.02791
384 5 5.98072 0.376277 5.5912
386 5 8.47303 3.13279 5.35872
389 5 7.31912 1.81069 7.01762
449 5 8.45521 5.36084 2.79715
450 5 7.19735 6.69103 1.16253
631 4 8.8092 4.70278 6.04906
632 2 7.27967 3.0278 4.2955
633 2 8.86171 5.44882 5.24447
634 2 6.79179 4.23446 2.83559
635 2 9.83791 6.66917 2.82477
71 5 5.54591 7.8181 2.53716
75 5 4.36841 9.48632 1.25397
83 5 5.47285 13.2866 2.83236
84 5 3.0145 13.6959 0.063493
85 5 2.72507 10.521 2.67264
86 5 1.62926 12.2538 1.41236
87 5 4.39738 15.0169 1.54178
259 2 5.86955 8.16773 4.083
293 2 1.60358 14.9639 3.03743
294 2 4.33076 12.1722 2.91849
295 2 5.89406 13.6545 4.34352
296 2 3.08187 10.8094 4.21775
297 2 1.58786 9.39272 2.66432
447 5 0.050804 7.81758 2.5364
451 5 9.86399 9.48686 1.25391
459 5 10.9682 13.2866 2.83275
460 5 8.50972 13.6958 0.063161
461 5 8.22016 10.521 2.67228
462 5 7.1243 12.254 1.41224
463 5 9.8922 15.0167 1.54199
636 2 0.373215 8.16587 4.08283
671 2 7.0977 14.9645 3.03785
672 2 9.82608 12.1723 2.92042
673 2 0.400017 13.6555 4.3435
674 2 8.57677 10.8079 4.21765
675 2 7.08323 9.39252 2.66242
9 5 5.98569 3.34375 8.43464
11 5 3.17302 0.42757 8.45659
12 5 4.5151 1.91094 9.83557
14 5 0.359299 0.461898 11.2537
15 5 5.88073 3.22154 14.2757
16 5 3.18084 3.34171 11.362
17 5 3.05972 0.360335 14.0659
19 5 1.70856 1.85991 12.7061
253 4 3.30585 4.97531 11.5499
260 4 6.11396 4.97574 8.59673
261 4 5.99934 4.8452 14.5085
385 5 0.487988 3.34403 8.43198
387 5 8.65883 0.428115 8.45521
388 5 10.0064 1.91006 9.82887
390 5 5.85394 0.462081 11.2638
391 5 0.37101 3.22215 14.2826
392 5 8.67714 3.34266 11.3573
393 5 8.57151 0.36747 14.0707
395 5 7.21687 1.85694 12.7063
630 4 8.80144 4.97569 11.5496
637 4 0.618965 4.97602 8.59669
638 4 0.512892 4.84609 14.5085
18 5 4.40568 1.71574 15.5774
20 5 0.286987 0.254506 16.9436
21 5 5.76634 2.71998 20.1626
22 5 3.19725 3.10302 17.2633
24 5 4.3662 1.00758 21.2808
25 5 1.6697 1.55741 18.503
252 4 3.41942 4.70567 17.5923
262 4 5.96627 4.30598 20.5543
394 5 9.8751 1.7454 15.6052
396 5 5.78367 0.19252 16.8856
397 5 0.656625 2.33465 20.6645
398 5 8.56353 3.10844 17.2371
399 5 8.54717 0.01039 19.7433
400 5 9.61044 1.24618 21.5906
401 5 7.09958 1.50607 18.4541
629 4 8.79754 4.70156 17.5942
639 4 1.81786 2.95127 21.7645
27 5 4.8652 2.24316 25.4456
28 5 2.858 2.00682 22.9577
30 5 3.98926 0.31802 26.7773
31 5 1.2676 0.62909 24.2335
33 5 1.20196 2.113 29.7482
34 5 5.36723 4.38771 27.935
37 5 2.18582 0.242058 28.4635
251 4 3.80224 2.82281 24.1754
263 4 5.00705 3.62799 26.4537
403 5 10.4604 2.08657 25.3343
404 5 8.64154 2.70176 23.5521
406 5 9.56253 0.279262 26.7716
407 5 6.89741 0.994533 24.2388
409 5 6.76547 2.03664 29.8543
410 5 0.374768 4.56927 27.5155
413 5 7.73489 0.251533 28.4468
627 4 0.606332 3.3606 28.7484
628 4 8.30825 4.29829 23.2391
640 4 0.013536 3.49262 26.1863
755 4 6.10607 3.22955 28.8822
757 5 5.84059 7.09098 29.9762
758 4 7.15042 6.43806 29.0084
760 4 4.38902 6.17281 30.0874
767 1 3.88406 5.13458 29.0765
768 2 3.00838 5.64449 28.4042
769 2 3.32052 4.25253 29.7349
773 1 6.61564 5.90902 27.6623
780 2 7.5675 5.57114 27.0139
781 2 6.10735 6.78305 26.9988
761 1 5.51229 8.92133 29.4851
762 2 6.42797 9.28755 28.8194
763 2 4.55285 8.97486 28.7862
775 2 6.55767 11.5535 29.8657
776 2 4.73562 11.53 29.2989
36 5 4.89293 0.628714 30.9723
39 5 0.152492 3.28831 34.3229
40 5 3.33521 2.16559 32.1082
41 5 3.17626 0.304608 35.372
42 5 4.54929 2.09708 36.339
43 5 1.69341 1.28835 33.7344
46 5 3.16867 3.72967 37.6588
249 4 3.1821 5.37397 37.6094
250 4 4.33391 3.2314 33.04
264 4 0.971693 4.70427 34.6537
412 5 10.3818 0.731159 30.9916
415 5 5.57098 3.17234 34.2812
416 5 8.86144 2.24877 32.2075
417 5 8.66492 0.258292 35.3965
418 5 10.0889 2.01669 36.3117
419 5 7.22305 1.28609 33.7634
422 5 8.6873 3.61351 37.6495
625 4 8.55938 5.24459 37.4736
626 4 9.78989 3.36089 33.171
641 4 7.83111 2.95133 30.9027
642 4 6.22519 4.69869 34.5232
756 4 2.41934 2.95622 30.7613
759 4 6.70581 7.25664 31.5602
770 1 6.8557 6.71513 32.8322
771 2 7.80036 7.36888 33.3588
772 2 6.35037 5.55839 33.7211
764 1 5.33732 9.86809 30.7257
765 2 4.29164 9.67212 31.2608
766 2 6.1937 9.63395 31.5209
774 1 5.42589 11.3793 30.2718
777 3 4.99732 12.3047 31.3709
778 2 5.32843 11.9151 32.3598
779 2 5.24423 13.4502 31.2004
805 4 5.73615 14.7684 31.1695
44 5 5.91385 0.906956 38.0212
45 5 0.325752 3.90754 40.667
47 5 3.14108 1.08327 40.9282
48 5 4.62234 2.42703 42.3505
49 5 1.82351 2.41762 39.3369
50 5 5.90637 0.92548 43.7944
52 5 3.13648 3.78229 43.7968
55 5 1.86484 2.22247 45.2678
248 4 2.77746 5.38263 43.6542
265 4 0.003785 5.50615 40.4335
420 5 0.427815 0.873182 38.0268
421 5 5.85364 3.90659 40.7414
423 5 8.65121 1.0635 40.9508
424 5 10.1196 2.45914 42.3406
425 5 7.32623 2.4015 39.3793
426 5 0.405372 0.938051 43.784
428 5 8.57613 3.80437 43.7353
431 5 7.36459 2.23952 45.2558
624 4 8.14646 5.37845 43.5191
643 4 5.51198 5.50688 40.5629
51 5 0.297694 3.5265 46.6559
53 5 3.13354 0.631696 46.5989
54 5 4.57445 1.90328 48.0888
56 5 5.84213 0.290452 49.3872
57 5 0.41965 2.75555 52.5432
58 5 3.04024 3.22007 49.484
61 5 1.76923 1.60235 50.8547
247 4 2.75852 4.84294 49.4297
266 4 10.8491 5.10654 46.4763
267 4 10.9891 4.43019 52.5174
427 5 5.78781 3.52632 46.6487
429 5 8.6298 0.641507 46.5859
430 5 10.0681 1.90055 48.0889
432 5 0.346414 0.289918 49.3893
433 5 5.9139 2.75541 52.5433
434 5 8.53455 3.21958 49.484
437 5 7.26448 1.60124 50.8554
623 4 8.25469 4.84293 49.4297
644 4 5.3537 5.10591 46.4727
645 4 5.49363 4.43017 52.5174
1 5 0.315499 0.022132 60.3084
3 5 2.95869 2.7688 60.0799
60 5 4.45035 1.12155 53.6119
63 5 0.102607 2.79331 57.2277
64 5 2.99018 2.44075 54.9656
66 5 4.44748 1.38454 58.8315
67 5 1.56354 1.12165 56.3041
68 5 1.61119 4.12222 58.6002
69 5 4.43118 4.28814 55.5664
70 5 0.270668 5.48399 60.0834
77 5 3.09784 5.48975 57.2293
78 5 4.40649 6.90203 58.7018
79 5 1.52481 6.78787 55.9225
371 2 0.398393 5.69149 55.5557
372 2 1.98685 7.34215 54.4813
373 2 5.02705 4.70084 53.5553
374 2 1.84804 2.76634 53.7352
377 5 5.81076 0.018896 60.3064
379 5 8.45188 2.76777 60.0811
436 5 9.94623 1.12176 53.6117
439 5 5.59698 2.79605 57.2273
440 5 8.48639 2.44258 54.9638
442 5 9.94039 1.38371 58.8319
443 5 7.05811 1.12656 56.3024
444 5 7.10721 4.12265 58.6002
445 5 9.92913 4.28751 55.5665
446 5 5.76563 5.48409 60.0828
453 5 8.59529 5.48866 57.2296
454 5 9.90209 6.90231 58.7021
455 5 7.02042 6.78544 55.9237
749 2 5.89389 5.68766 55.5606
750 2 7.48091 7.33641 54.4806
751 2 10.5235 4.70178 53.5549
752 2 7.34466 2.76924 53.7334
72 5 2.99788 8.17612 60.2026
76 5 0.323103 8.32334 57.3455
80 5 1.64535 9.64449 58.8607
81 5 4.16197 9.51536 56.0766
82 5 0.265596 10.9341 60.3603
88 5 0.296158 13.8011 57.6471
89 5 3.05064 11.0822 57.5252
90 5 4.3932 12.394 59.0207
91 5 1.38945 12.2151 56.2036
93 5 4.12801 14.9273 56.3276
365 2 3.00201 13.8134 56.1971
367 2 5.75784 11.1027 56.0416
368 2 1.76199 12.7315 54.7242
369 2 3.02023 8.41727 55.998
370 2 4.46593 10.0052 54.5724
448 5 8.49316 8.17676 60.2024
452 5 5.81839 8.32256 57.3454
456 5 7.14001 9.64443 58.8605
457 5 9.65596 9.51528 56.0765
458 5 5.76028 10.9338 60.3607
464 5 5.7907 13.8014 57.6479
465 5 8.54523 11.0821 57.5252
466 5 9.88845 12.3941 59.0201
467 5 6.88391 12.2155 56.2044
469 5 9.62331 14.9272 56.3271
743 2 8.4983 13.8124 56.1951
745 2 0.263564 11.102 56.0418
746 2 7.25667 12.7331 54.7256
747 2 8.5144 8.41699 55.9956
748 2 9.96088 10.0062 54.5729
94 5 0.279685 16.4412 0.164582
95 5 5.50301 18.8664 3.00967
96 5 3.04058 19.2009 0.241808
97 5 2.74314 16.0767 2.9401
98 5 1.66195 17.7856 1.62457
99 5 4.42202 20.5656 1.68208
106 5 0.298166 21.9568 0.271443
109 5 2.76269 21.6643 3.04542
288 2 3.17437 22.0939 4.54302
289 2 1.62109 20.5563 3.16534
290 2 4.35854 17.761 3.12185
291 2 5.92431 19.2753 4.51008
292 2 3.15772 16.4712 4.44654
470 5 5.77487 16.4417 0.16473
471 5 0.008157 18.8662 3.00958
472 5 8.53552 19.2008 0.241751
473 5 8.23789 16.0767 2.94033
474 5 7.15699 17.7858 1.62485
475 5 9.91704 20.5654 1.68199
482 5 5.79323 21.9568 0.271442
485 5 8.2577 21.6641 3.04533
666 2 8.66938 22.0938 4.54293
667 2 7.11595 20.5563 3.16525
668 2 9.85357 17.7609 3.12203
669 2 0.429386 19.2754 4.50993
670 2 8.65249 16.4712 4.44675
107 5 5.50788 24.4693 3.02527
108 5 3.03943 24.7132 0.253789
110 5 1.67735 23.3425 1.69165
111 5 4.43364 26.1197 1.63219
118 5 0.283967 27.4597 0.155223
119 5 5.5646 30.0594 2.85576
120 5 3.01341 30.1897 0.029533
121 5 2.76699 27.2592 2.94409
122 5 1.67684 28.8697 1.52334
282 2 4.48795 28.953 3.26072
284 2 3.17114 27.7639 4.41996
285 2 1.64182 26.1434 3.11765
286 2 4.36262 23.3674 3.16649
287 2 5.91556 24.9344 4.51324
483 5 0.012945 24.4692 3.02534
484 5 8.53442 24.7132 0.253736
486 5 7.17235 23.3425 1.69166
487 5 9.92897 26.1195 1.63201
494 5 5.77876 27.4594 0.155043
495 5 0.069112 30.0598 2.85616
496 5 8.50825 30.1895 0.02931
497 5 8.26228 27.2589 2.94395
498 5 7.17197 28.869 1.52313
660 2 9.98311 28.953 3.26174
662 2 8.66648 27.7636 4.41977
663 2 7.1371 26.1431 3.11751
664 2 9.85758 23.3674 3.16644
665 2 0.420587 24.9345 4.51327
783 2 3.36675 17.5234 27.2614
785 2 3.38684 18.7798 28.7308
787 1 4.03417 18.3057 27.8563
789 2 4.32376 19.1784 27.1129
790 2 3.96721 16.8049 30.0752
792 2 4.326 15.5512 28.6607
794 1 4.80916 16.397 29.3405
799 1 5.31378 17.588 28.4395
802 2 5.75106 22.0922 26.7381
803 2 5.63141 16.2756 26.6095
818 1 6.21447 17.0954 27.2403
824 1 6.11536 18.6344 29.2753
825 1 6.27008 21.1334 29.4544
829 1 6.02043 15.8244 30.1706
833 1 6.19997 19.9611 28.6594
836 1 6.3888 22.4604 28.869
843 1 6.64947 22.5806 27.3519
847 2 6.45953 18.0079 26.5221
851 2 6.11707 20.0649 27.4935
862 2 6.89497 15.5191 29.4017
866 2 7.24652 16.6465 27.612
869 2 7.63572 21.9749 27.0665
801 2 5.80411 27.3082 27.7328
826 1 6.27096 23.5588 29.7662
830 1 6.4064 27.3787 29.9091
834 1 6.38804 24.9478 29.3552
841 1 6.6997 27.6912 28.4223
849 2 6.5639 30.2184 29.6162
850 2 6.5949 25.2089 28.2273
852 2 6.77478 23.6998 26.9986
853 2 6.85545 28.8456 28.2265
868 2 7.68591 27.1176 28.075
831 2 6.13959 21.0685 30.6184
854 1 6.55257 17.0143 31.1055
855 1 6.69366 18.3745 30.553
856 2 6.25866 15.2573 32.0824
863 4 6.82407 16.6508 32.3826
864 2 6.74319 19.968 32.1919
870 1 7.46756 19.3731 31.4549
874 2 8.07532 20.166 30.8159
876 2 8.18336 18.7324 32.1612
820 1 6.26649 28.3696 30.9343
822 1 6.36491 29.7917 30.7003
823 1 6.2664 25.9876 30.3104
837 2 6.05422 27.9888 32.037
838 2 6.06499 23.3275 30.9098
840 2 6.05081 25.7358 31.4514
92 5 1.65128 15.1233 59.1268
100 5 0.304628 19.242 57.8261
101 5 3.04718 16.5301 57.7546
102 5 4.40575 17.8592 59.222
103 5 1.38956 17.6333 56.4118
104 5 1.65952 20.5835 59.2793
105 5 4.16753 20.3603 56.4686
113 5 3.03352 21.9522 57.8608
357 2 3.07064 19.2302 56.2485
358 2 4.60934 20.8881 55.0129
361 2 5.99986 22.0508 55.847
363 2 5.76571 16.5127 56.2694
364 2 1.7691 18.1179 54.9232
366 2 4.49486 15.4134 54.8365
468 5 7.14627 15.1236 59.127
476 5 5.79962 19.242 57.8259
477 5 8.54222 16.5299 57.7543
478 5 9.9007 17.859 59.222
479 5 6.88454 17.6331 56.4115
480 5 7.15454 20.5835 59.2792
481 5 9.66253 20.3604 56.4687
489 5 8.52856 21.9523 57.8607
735 2 8.56534 19.2306 56.2485
736 2 10.1045 20.888 55.0129
739 2 0.504588 22.0508 55.8473
741 2 0.270804 16.5128 56.2698
742 2 7.26408 18.1179 54.923
744 2 9.99052 15.4141 54.8365
112 5 0.251517 24.6351 57.835
114 5 4.39097 23.3035 59.2944
115 5 1.5118 23.1423 56.4352
116 5 1.62888 26.0062 59.2347
117 5 4.42484 26.0025 56.3615
124 5 5.68848 30.0456 57.6234
125 5 2.97071 27.3225 57.7482
126 5 4.35501 28.7231 59.12
127 5 1.80726 28.8512 56.2967
355 2 1.25599 28.1935 54.9354
356 2 2.88715 29.9581 55.8981
359 2 3.60553 25.0938 55.3225
360 2 5.36912 26.9943 55.5304
362 2 2.20175 23.9022 55.1991
488 5 5.74644 24.635 57.8348
490 5 9.88603 23.3035 59.2944
491 5 7.00687 23.1424 56.435
492 5 7.12383 26.006 59.2346
493 5 9.91985 26.0026 56.3614
500 5 0.193579 30.0456 57.6233
501 5 8.46559 27.3224 57.7481
502 5 9.85006 28.7231 59.1199
503 5 7.30211 28.8513 56.2968
733 2 6.75094 28.1935 54.9355
734 2 8.38209 29.9581 55.8981
737 2 9.10082 25.094 55.3223
738 2 10.8642 26.9944 55.5306
740 2 7.69696 23.9024 55.1992
123 5 4.39587 31.5846 1.40847
131 5 0.363314 35.7519 2.75347
133 5 2.95128 32.9011 2.80606
134 5 1.61499 34.2627 1.34251
135 5 4.32247 36.9453 1.34734
278 2 10.6818 35 4.00433
279 2 1.37741 36.8473 3.32092
280 2 3.77424 33.8189 3.83339
281 2 2.0194 31.9077 3.64897
283 2 6.11808 30.7241 4.21214
499 5 9.89011 31.5845 1.40858
507 5 5.8582 35.7523 2.75324
509 5 8.4457 32.9015 2.80631
510 5 7.10998 34.2632 1.34232
511 5 9.81785 36.9452 1.34732
656 2 5.18677 35 4.00396
657 2 6.8717 36.8483 3.32081
658 2 9.26919 33.8189 3.83346
659 2 7.5134 31.9086 3.64936
661 2 0.623012 30.7249 4.21214
143 5 0.460949 41.2844 2.81242
144 5 2.9357 41.056 0.018175
145 5 3.19465 38.5358 2.74947
146 5 1.5483 39.6597 1.40895
147 5 4.28869 42.3997 1.4844
154 5 5.67417 43.8004 0.093214
157 5 3.20448 44.0297 2.88813
158 5 1.53188 45.1451 1.56112
272 2 4.33778 45.1421 3.01762
273 2 2.82819 43.5611 4.38258
274 2 0.08383 40.8131 4.30619
275 2 1.58922 42.3995 2.94623
276 2 4.29794 39.6626 2.96266
277 2 2.76815 38.0073 4.20947
519 5 5.95638 41.2834 2.81204
520 5 8.43057 41.0556 0.018822
521 5 8.68997 38.5352 2.74994
522 5 7.04369 39.6586 1.40909
523 5 9.78332 42.4005 1.48438
530 5 0.17938 43.8008 0.093076
533 5 8.69753 44.0307 2.88687
534 5 7.02618 45.1473 1.55906
650 2 9.83044 45.1433 3.01674
651 2 8.32102 43.5625 4.38146
652 2 5.57943 40.8127 4.30598
653 2 7.08504 42.3984 2.94508
654 2 9.79313 39.6621 2.96339
655 2 8.26301 38.0064 4.2096
867 2 7.85557 45.2184 29.2079
871 2 8.06602 40.3002 29.7009
872 4 8.54701 43.534 29.2717
877 2 9.4991 41.485 30.1283
796 2 4.92247 33.5398 34.2358
807 1 5.92982 32.9873 33.9161
808 2 5.80778 37.1797 34.9002
810 1 6.25047 35.687 32.7404
811 1 6.20426 33.1984 32.4082
813 2 5.82512 31.839 34.1784
814 1 6.21643 30.7169 31.7754
815 1 6.35221 34.5545 31.8858
817 1 6.42316 37.0207 32.1893
819 1 6.32457 32.1364 31.4726
827 2 6.04551 35.519 33.8856
832 2 6.01295 30.3165 32.8663
844 2 6.56249 34.6989 30.7293
846 2 6.64527 37.12 31.0328
848 2 6.53235 32.4226 30.3413
857 2 6.81602 33.4443 34.5704
782 2 3.49492 43.4684 32.9978
784 2 3.8985 42.0571 31.7296
786 1 4.25668 42.5958 32.7277
788 2 4.22705 41.7941 33.5971
791 2 5.01186 43.8823 30.5076
793 2 5.04798 45.2386 31.856
795 1 5.63748 44.3001 31.4272
797 2 5.08152 38.9451 34.6761
798 1 5.70884 43.1776 32.5333
800 2 5.5392 44.6391 34.2644
804 1 6.22024 43.7289 33.9226
806 1 6.03397 38.257 34.4673
809 2 6.13638 42.8777 34.7461
812 1 6.34753 38.2203 32.9576
816 1 6.4063 40.7344 32.8379
821 1 6.58683 39.4717 32.2366
828 1 6.6255 41.9941 32.0922
835 2 5.99893 40.8036 33.9431
842 2 6.85041 39.3913 31.0912
845 1 7.10553 44.709 30.9705
858 2 6.94813 38.7264 35.0745
859 1 7.5899 42.0857 31.0622
860 2 7.35267 44.0764 33.8802
861 1 7.79084 43.403 30.3712
865 2 7.71731 44.9635 31.9904
873 1 8.53235 40.9555 30.5879
875 2 8.79358 40.2268 31.4933
128 5 1.58987 31.4533 58.9935
129 5 4.60315 31.6686 56.2103
130 5 0.248686 32.8976 60.3737
132 5 2.97425 35.6031 60.3425
136 5 5.68541 35.5797 57.5012
137 5 2.93831 32.8066 57.5298
138 5 4.32492 34.2008 58.9289
139 5 1.85969 34.472 56.1565
140 5 1.56385 36.9556 58.9344
141 5 4.6002 37.272 56.1682
343 2 4.1902 36.8704 54.6628
345 2 4.18458 31.173 54.7354
346 2 0.237976 32.7804 56.0303
353 2 1.44947 34.0312 54.6619
354 2 2.99672 35.584 56.0255
504 5 7.08487 31.4533 58.9934
505 5 10.0983 31.6686 56.2102
506 5 5.74386 32.8978 60.3735
508 5 8.46937 35.6033 60.3423
512 5 0.190404 35.5797 57.5014
513 5 8.4335 32.8065 57.5298
514 5 9.81992 34.2007 58.9289
515 5 7.35488 34.4718 56.1565
516 5 7.05867 36.9556 58.9342
517 5 10.0951 37.272 56.1683
721 2 9.68537 36.8705 54.6628
723 2 9.6797 31.1728 54.7354
724 2 5.73297 32.7804 56.0305
731 2 6.94496 34.0307 54.6618
732 2 8.49173 35.5839 56.0254
142 5 5.70042 38.3194 60.3851
148 5 5.67433 41.116 57.6087
149 5 2.93469 38.3555 57.5375
150 5 4.30262 39.7097 58.9981
151 5 1.84456 40.0575 56.2224
152 5 1.55009 42.4591 59.0743
153 5 4.58753 42.8245 56.3036
161 5 2.92049 43.8736 57.6919
162 5 4.29018 45.2142 59.16
341 2 4.1929 42.4531 54.7865
342 2 0.223178 43.9437 56.232
344 2 0.24259 38.3848 56.0657
349 2 1.4463 45.1855 54.8571
351 2 1.43721 39.6691 54.7129
352 2 2.97405 41.1784 56.1307
518 5 0.205559 38.3196 60.3852
524 5 0.179513 41.1159 57.6086
525 5 8.42955 38.3556 57.5374
526 5 9.79746 39.7096 58.9981
527 5 7.33941 40.0578 56.2225
528 5 7.04502 42.4585 59.075
529 5 10.0828 42.8246 56.3038
537 5 8.41655 43.8726 57.6936
538 5 9.78622 45.2158 59.1599
719 2 9.68691 42.4537 54.7868
720 2 5.71773 43.9438 56.2323
722 2 5.73754 38.3849 56.0656
727 2 6.94201 45.1851 54.8585
729 2 6.93187 39.6695 54.7131
730 2 8.46878 41.1788 56.1311
155 5 0.446977 46.7805 2.96177
156 5 2.92012 46.5577 0.181378
159 5 4.26956 47.9213 1.64042
166 5 5.65921 49.3029 0.227508
167 5 0.402033 52.3374 3.01159
168 5 2.93003 52.0903 0.328651
169 5 3.16666 49.5564 3.03983
170 5 1.50958 50.6624 1.6772
268 2 4.29155 50.6793 3.19093
269 2 2.77861 49.0748 4.52798
270 2 0.07413 46.3198 4.45985
271 2 1.58945 47.8843 3.08368
298 2 0.135802 51.9726 4.55822
531 5 5.94113 46.7856 2.95673
532 5 8.41625 46.5609 0.181065
535 5 9.76615 47.9179 1.64738
542 5 0.162493 49.2971 0.230882
543 5 5.89656 52.3188 3.0395
544 5 8.41029 52.0901 0.324478
545 5 8.66914 49.5603 3.04351
546 5 7.00362 50.6611 1.68413
646 2 9.79557 50.6837 3.20544
647 2 8.27148 49.0754 4.5282
648 2 5.56624 46.3272 4.45528
649 2 7.08384 47.8893 3.07778
676 2 5.58147 51.9186 4.56755
171 5 4.22755 53.5411 1.782
178 5 5.66353 54.8916 0.342865
179 5 0.446872 57.9654 2.85658
180 5 3.07139 57.7065 0.115904
181 5 2.99447 55.1707 3.09688
182 5 4.60881 56.5185 4.22973
183 5 1.65266 56.3765 1.53247
184 5 1.88883 59.3648 4.23267
185 5 4.45066 59.22 1.4173
187 5 3.33823 58.0139 5.65381
189 5 1.57345 56.8708 6.79871
191 5 4.60534 59.4897 7.07243
299 2 1.60224 53.3651 2.95872
300 2 1.5606 55.2611 6.86932
301 2 0.493765 57.2978 5.72666
302 2 2.14914 54.6858 4.37844
376 2 5.44441 55.3361 4.92689
547 5 9.70181 53.5464 1.77402
554 5 0.164677 54.8903 0.345545
555 5 5.93968 57.9689 2.85521
556 5 8.5693 57.7146 0.114954
557 5 8.48419 55.1843 3.09167
558 5 10.1022 56.5194 4.23327
559 5 7.14609 56.3871 1.52512
560 5 7.38294 59.3657 4.23235
561 5 9.94893 59.222 1.42072
563 5 8.82708 58.0125 5.65559
565 5 7.06767 56.8672 6.80636
567 5 10.094 59.4931 7.06985
677 2 7.11325 53.3274 3.05379
678 2 7.06174 55.2577 6.87553
679 2 5.98265 57.2911 5.73908
680 2 7.62703 54.7108 4.36971
754 2 10.9298 55.3328 4.93335
186 5 0.449387 58.1038 8.51784
188 5 4.25785 56.689 9.5387
190 5 1.80659 59.5046 9.9096
192 5 0.379684 58.0081 14.0151
193 5 3.17263 58.0294 11.2365
194 5 4.20842 56.5334 14.9474
195 5 1.45612 56.7149 12.2937
197 5 4.5114 59.4436 12.6602
303 2 3.12858 56.546 8.40449
304 2 4.66711 55.19 9.96515
305 2 1.73035 55.1554 12.5893
306 2 0.315051 56.7789 11.1884
307 2 3.12522 56.4286 13.7851
562 5 5.94223 58.0977 8.52625
564 5 9.76572 56.6909 9.54005
566 5 7.29665 59.5044 9.91394
568 5 5.88459 57.9679 13.9826
569 5 8.67114 58.0317 11.2323
570 5 9.66559 56.6111 14.9807
571 5 6.98076 56.6726 12.275
573 5 10.0047 59.4533 12.654
681 2 8.64114 56.5101 8.40456
682 2 10.2067 55.2097 9.99639
683 2 7.3368 55.1456 12.6399
684 2 5.85947 56.632 11.147
685 2 8.53866 56.6886 13.8632
23 5 3.01064 60.2939 19.6596
26 5 0.147455 59.9354 22.4377
196 5 1.72067 59.3662 15.4798
198 5 0.308965 57.4989 19.4206
199 5 3.08724 57.7796 16.678
200 5 4.1318 56.0787 20.2636
201 5 1.40722 56.3327 17.6214
202 5 1.66135 58.7486 20.9591
203 5 4.45969 59.0685 18.1664
205 5 3.05077 57.1448 22.1223
308 2 4.635 55.0269 15.3222
309 2 1.80729 54.7941 17.8808
310 2 5.77572 56.6004 16.5291
311 2 3.07534 56.2523 19.0934
312 2 4.47578 54.5075 20.3495
314 2 5.76237 55.396 21.8261
402 5 5.83552 60.0242 22.5403
572 5 7.22457 59.3373 15.4349
574 5 5.83475 57.5764 19.4655
575 5 8.60399 57.8585 16.7423
576 5 9.62391 55.9821 20.2659
577 5 6.89494 56.428 17.6414
578 5 7.23401 58.812 20.9799
579 5 9.96105 59.1442 18.261
581 5 8.4947 57.0749 22.0877
686 2 9.97482 55.0475 15.2178
687 2 7.18641 54.8487 17.7708
688 2 0.299054 56.3268 16.4818
689 2 8.55843 55.9937 19.0854
690 2 10.056 54.4421 20.4619
692 2 0.380184 55.56 21.7598
839 4 7.21319 45.8041 29.9588
29 5 2.89371 59.4667 25.0835
32 5 0.359391 59.3277 27.6327
35 5 3.31073 59.4275 30.1509
204 5 0.208191 56.6533 24.8056
206 5 4.16223 55.1303 25.9145
207 5 1.39848 55.6051 22.9833
208 5 1.66626 57.8251 26.3024
209 5 4.46468 58.3475 23.6454
211 5 3.14788 56.4522 27.6712
213 5 1.61003 55.079 28.9583
215 5 4.64472 57.8398 28.9992
313 2 1.91651 54.0982 23.2214
315 2 2.99202 54.8281 24.8606
316 2 4.82507 53.726 26.3495
327 2 2.21043 53.6895 29.5142
328 2 5.89544 54.7989 27.9026
405 5 8.32793 59.5784 25.0632
408 5 5.83892 59.4067 27.6193
411 5 8.844 59.4657 30.1653
580 5 5.72554 56.6268 24.8236
582 5 9.63878 55.1742 25.927
583 5 6.85225 55.5434 22.9816
584 5 7.14418 57.8977 26.2792
585 5 9.8263 58.3078 23.6457
587 5 8.62705 56.5293 27.6632
589 5 7.09268 55.131 28.9249
591 5 10.1509 57.8207 29.0537
691 2 7.4356 54.068 23.2638
693 2 8.46645 54.8441 24.8852
694 2 10.3022 53.783 26.4001
705 2 7.6923 53.7364 29.4683
706 2 0.421217 54.7368 27.9274
38 5 6.00471 59.938 32.7493
210 5 0.564219 56.5716 30.5594
212 5 4.38143 55.5338 31.876
214 5 1.88739 58.2622 31.7092
216 5 0.50632 57.8977 35.8954
217 5 3.30565 57.167 33.3092
218 5 4.43321 56.7285 37.3148
219 5 1.59387 56.1432 34.649
220 5 1.79096 59.6099 36.9716
221 5 4.52102 58.9654 34.3611
317 2 3.20818 55.2281 30.8252
318 2 4.77623 54.133 32.5706
319 2 3.40916 56.0255 36.3151
329 2 1.91524 54.8174 35.5061
330 2 5.92676 55.7582 33.6104
414 5 0.488742 59.9351 32.7199
586 5 6.06807 56.634 30.5256
588 5 9.85871 55.4775 31.9029
590 5 7.40348 58.2883 31.7076
592 5 5.99152 57.8859 35.9243
593 5 8.7852 57.1407 33.301
594 5 9.92636 56.7456 37.2842
595 5 7.06836 56.1434 34.6544
596 5 7.26643 59.6032 37.0017
597 5 9.99963 58.948 34.3341
695 2 8.69769 55.1519 30.8432
696 2 10.2518 54.0924 32.6292
697 2 8.90434 56.0682 36.2644
707 2 7.38999 54.8123 35.5034
708 2 0.46737 55.7469 33.5917
222 5 5.85062 58.7004 40.9449
223 5 3.20544 58.4251 38.4732
224 5 4.73722 57.2437 42.4757
225 5 1.84655 57.1262 39.9384
226 5 1.77846 60.0618 42.304
227 5 4.51714 60.0953 39.5547
229 5 3.07448 58.5269 43.6064
231 5 2.00608 57.0289 45.1448
233 5 4.50137 59.8231 45.0496
320 2 4.97576 55.6033 38.3227
321 2 4.38273 55.7883 41.8929
322 2 0.321418 56.9988 43.6313
331 2 2.63432 56.4477 41.1486
332 2 1.11942 55.967 39.1068
334 2 1.67876 55.5458 44.6097
598 5 0.363677 58.6813 40.9659
599 5 8.69953 58.4162 38.4892
600 5 10.2341 57.2198 42.4881
601 5 7.34108 57.1229 39.9606
602 5 7.27275 60.0474 42.3111
603 5 10.0244 60.0762 39.5721
605 5 8.56665 58.509 43.609
607 5 7.49069 57.0149 45.1461
609 5 9.99251 59.8267 45.0371
698 2 10.4608 55.5934 38.268
699 2 9.87844 55.7697 41.8914
700 2 5.82806 57.0362 43.6091
709 2 8.106 56.491 41.2095
710 2 6.63134 55.936 39.1525
712 2 7.14979 55.5392 44.6014
59 5 3.05993 60.3733 52.0714
228 5 5.80942 58.2567 46.3277
230 5 4.73134 56.6904 47.8129
232 5 1.73117 59.5144 47.8204
234 5 5.75855 57.5435 51.8772
235 5 3.0425 57.8942 49.0379
237 5 1.94624 56.3781 50.5713
239 5 4.45468 59.1193 50.5637
323 2 4.38521 55.2493 47.1832
324 2 0.373851 56.4823 48.9063
325 2 3.96232 54.7121 52.8356
333 2 3.13338 56.8851 46.255
335 2 3.12799 56.2063 51.621
336 2 1.60998 54.9134 49.9892
435 5 8.5565 60.3717 52.0719
604 5 0.314455 58.2643 46.3196
606 5 10.2277 56.6976 47.8061
608 5 7.22807 59.5243 47.812
610 5 0.267106 57.5373 51.8779
611 5 8.53953 57.9052 49.03
613 5 7.44309 56.3944 50.5691
615 5 9.95303 59.117 50.5654
701 2 9.88687 55.2491 47.1894
702 2 5.86207 56.458 48.9148
703 2 9.43253 54.7182 52.812
711 2 8.61434 56.8473 46.2556
713 2 8.62734 56.2549 51.6199
714 2 7.12619 54.9181 50.0039
160 5 5.66495 46.6101 57.7643
163 5 1.83665 45.572 56.3711
164 5 1.53814 47.9519 59.2269
165 5 4.57878 48.3218 56.4703
172 5 5.68067 52.1102 57.8818
173 5 2.91497 49.3684 57.8571
174 5 4.29171 50.7363 59.2966
175 5 1.82851 51.0294 56.5025
339 2 4.19803 47.9684 54.9456
340 2 0.20737 49.4406 56.4122
347 2 1.40647 50.6265 55.0022
348 2 2.96595 52.1355 56.3764
350 2 2.96228 46.6966 56.2899
536 5 0.169297 46.6123 57.7621
539 5 7.33143 45.57 56.3731
540 5 7.0339 47.9546 59.2245
541 5 10.0694 48.3218 56.4664
548 5 0.187061 52.0896 57.9055
549 5 8.40444 49.3742 57.8492
550 5 9.77601 50.7249 59.3073
551 5 7.32681 51.0402 56.4875
717 2 9.68865 47.9647 54.9425
718 2 5.70529 49.4424 56.4213
725 2 6.89819 50.6168 54.9944
726 2 8.46298 52.1485 56.3396
728 2 8.45636 46.6951 56.2935
62 5 5.86412 60.1172 54.8639
65 5 3.06635 60.2661 57.6351
176 5 1.50249 53.4541 59.3989
177 5 4.47721 53.7483 56.6149
236 5 4.62295 56.05 53.441
238 5 1.71019 58.8079 53.3662
240 5 5.78898 57.4474 57.6408
241 5 3.12856 57.4244 54.7769
242 5 2.91402 54.8274 58.0399
243 5 4.42481 56.2359 59.2381
244 5 1.842 56.1008 56.3281
245 5 1.66093 58.9212 59.0336
246 5 4.4051 58.8317 56.2333
326 2 5.81128 55.5726 54.377
337 2 4.11755 53.5093 55.0659
338 2 5.40852 55.0126 56.6452
375 2 1.44419 54.8973 55.3533
438 5 0.368559 60.1152 54.8625
441 5 8.55795 60.2682 57.6323
552 5 6.99715 53.4608 59.3876
553 5 9.99713 53.743 56.6456
612 5 10.1072 56.0426 53.4323
614 5 7.20328 58.8096 53.3668
616 5 0.293554 57.4582 57.642
617 5 8.62028 57.4211 54.7745
618 5 8.4223 54.8362 58.0453
619 5 9.92778 56.2459 59.2433
620 5 7.34204 56.0924 56.3279
621 5 7.15537 58.9181 59.0288
622 5 9.89544 58.8326 56.2308
704 2 0.293886 55.5416 54.3719
715 2 9.67609 53.5429 55.0827
716 2 10.9687 54.9726 56.7392
753 2 6.95641 54.8711 55.3699
ITEM: TIMESTEP
100
ITEM: NUMBER OF ATOMS
877
ITEM: BOX BOUNDS pp pp pp
0.0000000000000000e+00 1.0990000000000000e+01
0.0000000000000000e+00 6.0445000000000000e+01
0.0000000000000000e+00 6.0445000000000000e+01
ITEM: ATOMS id type x y z
2 5 0.241732 2.8411 2.37456
4 5 3.17158 0.260022 2.72468
5 5 4.58367 1.70393 4.08272
6 5 1.71005 1.45774 1.18871
7 5 4.32382 4.14863 1.02954
8 5 0.459653 0.347607 5.58855
10 5 3.02894 2.93935 5.41204
13 5 1.81313 1.7323 7.01917
73 5 2.97622 5.41421 2.43757
74 5 1.6353 6.73345 1.10746
254 4 3.36087 4.81481 6.10675
255 2 1.12609 3.10271 4.25618
256 2 3.36028 5.24511 5.06826
257 2 1.582 4.23095 3.42724
258 2 4.33514 6.72706 3.56302
378 5 5.73465 2.83885 2.37438
380 5 8.66859 0.261123 2.72669
381 5 10.0803 1.70669 4.0829
382 5 7.20401 1.45587 1.18914
383 5 9.81824 4.14829 1.02941
384 5 5.95531 0.346091 5.58819
386 5 8.52181 2.94248 5.40823
389 5 7.3059 1.735 7.01598
449 5 8.4695 5.41366 2.43643
450 5 7.12969 6.73426 1.10688
631 4 8.8549 4.8165 6.10697
632 2 6.6177 3.10111 4.25588
633 2 8.85726 5.2473 5.06839
634 2 7.07862 4.22708 3.42953
635 2 9.82947 6.72616 3.5622
71 5 5.60938 7.92704 2.36856
75 5 4.35108 9.45673 1.1996
83 5 5.54468 13.365 2.65409
675 2 6.94002 9.26518 3.30502
85 5 2.80664 10.6068 2.49954
86 5 1.60641 12.2219 1.3529
87 5 4.36891 14.99 1.48058
259 2 5.67367 7.94557 4.21491
293 2 1.39969 14.7761 3.55075
294 2 4.14103 11.97 3.41065
295 2 5.64543 13.3867 4.45621
296 2 2.85649 10.5987 4.302
297 2 1.44439 9.26539 3.30485
447 5 0.114351 7.92652 2.3681
451 5 9.84652 9.45694 1.19939
459 5 0.0498042 13.3651 2.6544
674 2 8.3517 10.5985 4.30183
461 5 8.30191 10.607 2.49927
462 5 7.10138 12.2219 1.35268
463 5 9.86377 14.9898 1.48072
636 2 0.178286 7.94515 4.21444
671 2 6.89395 14.7762 3.55021
672 2 9.63647 11.9698 3.41135
673 2 0.150736 13.3871 4.4566
9 5 5.96289 3.07685 8.43962
11 5 3.18081 0.399499 8.44542
12 5 4.52252 1.83394 9.85263
14 5 0.377223 0.409687 11.2613
15 5 5.87047 2.97842 14.2532
16 5 3.16894 3.08928 11.3521
17 5 3.0784 0.315935 14.0821
19 5 1.71719 1.78479 12.7176
253 4 3.30842 5.10902 11.5572
260 4 6.12293 5.11019 8.61601
261 4 6.00733 4.98855 14.5215
385 5 0.466401 3.07666 8.43696
387 5 8.66909 0.399473 8.44449
388 5 10.0141 1.83484 9.84589
390 5 5.87375 0.405965 11.2712
391 5 0.364611 2.97956 14.2642
392 5 8.66616 3.09019 11.3467
393 5 8.57942 0.324898 14.0813
395 5 7.22256 1.78644 12.7158
630 4 8.80421 5.10947 11.557
637 4 0.628383 5.10974 8.61639
638 4 0.523417 4.98829 14.5279
18 5 4.42407 1.65069 15.585
20 5 0.310957 0.19424 16.9433
21 5 5.7674 2.47254 20.1417
22 5 3.15387 2.84249 17.2231
24 5 4.37269 0.934794 21.2697
25 5 1.67624 1.44097 18.5166
252 4 3.42455 4.83028 17.5881
262 4 5.97221 4.43789 20.562
394 5 9.89711 1.66658 15.6046
396 5 5.79539 0.145478 16.8942
397 5 0.504386 2.28962 20.4768
398 5 8.55703 2.84703 17.199
639 4 1.81383 3.12836 21.7827
400 5 9.70771 1.14531 21.4921
401 5 7.10812 1.42831 18.4494
629 4 8.79982 4.82823 17.602
27 5 5.01867 1.93394 25.4276
28 5 2.87346 1.86483 22.9153
30 5 4.05071 0.244773 26.77
31 5 1.32432 0.535781 24.1288
33 5 1.07858 1.81824 29.8005
34 5 5.31234 4.63171 27.9529
37 5 2.14764 0.178082 28.4841
251 4 3.85296 3.04366 24.2438
263 4 5.02194 3.68466 26.3448
403 5 10.4864 1.86282 25.2361
404 5 8.67017 2.39999 23.503
406 5 9.58914 0.223362 26.7546
407 5 6.90177 0.862334 24.1722
409 5 6.65638 1.75813 29.87
410 5 0.379996 4.81069 27.5378
413 5 7.68872 0.187111 28.4875
627 4 0.528292 3.38793 28.7555
628 4 8.27945 4.40992 23.2205
640 4 0.10548 3.51649 26.2172
755 4 6.08752 3.30242 28.8921
757 5 5.83608 7.20205 29.8895
758 4 7.27567 6.36624 28.9514
760 4 4.23884 6.06668 30.1191
767 1 3.9105 5.11958 29.1232