LAMMPS (29 Oct 2020)
OMP_NUM_THREADS environment is not set. Defaulting to 1 thread. (src/comm.cpp:94)
  using 1 OpenMP thread(s) per MPI task
# REAX potential for CHONS systems

units		real
atom_style	charge
dimension       3

read_data       geom.data
Reading data file ...
  orthogonal box = (0.0000000 0.0000000 0.0000000) to (10.990000 60.445000 60.445000)
  1 by 4 by 8 MPI processor grid
  reading atoms ...
  877 atoms
  read_data CPU = 0.165 seconds

pair_style	reax/c lmp_control safezone 2.0 mincap 100
pair_coeff	* *  ffield.ff C H N O Si
WARNING: VdWaals-parameters for element O indicate inner wall+shielding, but earlier atoms indicate different vdWaals-method. This may cause division-by-zero errors. Keeping vdWaals-setting for earlier atoms. (src/USER-REAXC/reaxc_ffield.cpp:259)
WARNING: Changed valency_val to valency_boc for H (src/USER-REAXC/reaxc_ffield.cpp:315)

neighbor	2 bin
neigh_modify	every 10 delay 0 check no


dump            mypos all xyz 10 pos.out

# NVE anneal
fix             1 all nve
fix             2 all qeq/reax 1 0.0 10.0 1e-6 param.qeq
fix             3 all temp/berendsen 273.0 303.0 0.25
thermo          1
thermo_style    custom step epair etotal temp press
timestep        0.25
run             2000
Neighbor list info ...
  update every 10 steps, delay 0 steps, check no
  max neighbors/atom: 2000, page size: 100000
  master list distance cutoff = 12
  ghost atom cutoff = 12
  binsize = 6, bins = 2 11 11
  2 neighbor lists, perpetual/occasional/extra = 2 0 0
  (1) pair reax/c, perpetual
      attributes: half, newton off, ghost
      pair build: half/bin/newtoff/ghost
      stencil: half/ghost/bin/3d/newtoff
      bin: standard
  (2) fix qeq/reax, perpetual, copy from (1)
      attributes: half, newton off, ghost
      pair build: copy
      stencil: none
      bin: none
Per MPI rank memory allocation (min/avg/max) = 18.74 | 33.59 | 45.35 Mbytes
Step E_pair TotEng Temp Press 
       0   -65755.155   -65755.155            0   -270571.65 
       1   -65741.425   -65028.531      273.015   -269874.84 
       2   -65627.585   -64914.652       273.03   -270749.76 
       3   -65508.253   -64795.281      273.045   -271559.81 
       4   -65384.264   -64671.252       273.06   -272320.51 
       5   -65256.424   -64543.373      273.075   -273014.25 
       6   -65125.303   -64412.213       273.09   -273542.53 
       7   -64990.797   -64277.668      273.105   -273797.99 
       8   -64853.048   -64139.879       273.12   -273943.01 
       9   -64713.505   -64000.297      273.135   -274190.07 
      10   -64573.905   -63860.659       273.15   -274552.15 
      11   -64435.316    -63722.03      273.165   -274934.97 
      12   -64298.285    -63584.96       273.18   -275295.32 
      13   -64163.166   -63449.802      273.195   -275629.79 
      14   -64030.248   -63316.845       273.21   -275941.15 
      15   -63899.787   -63186.344      273.225   -276246.34 
      16   -63771.974   -63058.493       273.24   -276565.45 
      17   -63646.943   -62933.422      273.255    -276913.2 
      18   -63524.775   -62811.216       273.27   -277289.42 
      19   -63405.555   -62691.956      273.285   -277697.01 
      20   -63289.466   -62575.828        273.3   -278107.17 
      21   -63176.935   -62463.257      273.315   -278493.67 
      22   -63068.264   -62354.547       273.33   -278883.37 
      23     -62962.2   -62248.445      273.345   -279331.64 
      24   -62857.803   -62144.009       273.36   -279744.46 
      25   -62756.121   -62042.287      273.375   -280101.35 
      26    -62657.63   -61943.757       273.39   -280418.04 
      27    -62562.37   -61848.458      273.405   -280713.07 
      28   -62470.317   -61756.366       273.42   -280986.86 
      29   -62381.445   -61667.455      273.435   -281251.63 
      30   -62295.759   -61581.729       273.45    -281508.8 
      31   -62213.249    -61499.18      273.465   -281766.75 
      32   -62133.888    -61419.78       273.48   -282025.48 
      33   -62057.658   -61343.511      273.495   -282280.99 
      34   -61984.478   -61270.292       273.51   -282537.31 
      35   -61914.227   -61200.001      273.525   -282790.07 
      36   -61846.831   -61132.566       273.54   -283035.36 
      37   -61782.267   -61067.963      273.555   -283268.42 
      38   -61720.566   -61006.223       273.57   -283464.28 
      39   -61661.657   -60947.275      273.585   -283576.49 
      40   -61605.007   -60890.585        273.6   -283514.25 
      41   -61549.561   -60835.101      273.615   -283308.64 
      42    -61495.02    -60780.52       273.63   -283161.91 
      43   -61442.249    -60727.71      273.645   -283120.46 
      44   -61391.874   -60677.296       273.66   -283099.15 
      45   -61344.247    -60629.63      273.675   -283058.12 
      46   -61299.543   -60584.886       273.69   -283008.07 
      47   -61257.831   -60543.135      273.705   -282965.66 
      48   -61218.768   -60504.033       273.72   -282948.97 
      49   -61181.434    -60466.66      273.735   -282950.25 
      50   -61144.861   -60430.048       273.75   -282944.26 
      51   -61108.544   -60393.692      273.765    -282934.1 
      52   -61072.154   -60357.262       273.78   -282968.88 
      53   -61035.412   -60320.481      273.795   -283102.49 
      54   -60998.282   -60283.313       273.81   -283307.58 
      55   -60961.276   -60246.267      273.825   -283490.86 
      56    -60925.24   -60210.192       273.84   -283574.32 
      57   -60890.858    -60175.77      273.855   -283555.52 
      58   -60858.428   -60143.302       273.87   -283457.65 
      59   -60827.921   -60112.756      273.885   -283280.85 
      60   -60799.065   -60083.861        273.9   -283030.68 
      61   -60771.432   -60056.188      273.915   -282728.75 
      62   -60744.689   -60029.406       273.93   -282418.47 
      63    -60718.71   -60003.388      273.945   -282137.82 
      64   -60693.485   -59978.124       273.96   -281902.68 
      65   -60668.979   -59953.578      273.975   -281711.25 
      66   -60645.163   -59929.723       273.99   -281562.06 
      67   -60621.945   -59906.466      274.005   -281452.99 
      68    -60599.13   -59883.612       274.02    -281371.5 
      69   -60576.658     -59861.1      274.035   -281289.91 
      70   -60554.576    -59838.98       274.05   -281176.29 
      71   -60533.026   -59817.391      274.065    -281008.9 
      72   -60512.078   -59796.404       274.08   -280783.58 
      73   -60491.749   -59776.035      274.095   -280502.14 
      74   -60471.938   -59756.185       274.11   -280162.17 
      75   -60452.519   -59736.727      274.125   -279773.06 
      76   -60433.318   -59717.487       274.14   -279343.34 
      77   -60414.282   -59698.412      274.155   -278901.14 
      78   -60395.433   -59679.523       274.17   -278475.25 
      79   -60376.842   -59660.893      274.185   -278092.28 
      80   -60358.516   -59642.528        274.2    -277764.3 
      81   -60340.483   -59624.456      274.215   -277484.54 
      82   -60322.819   -59606.752       274.23   -277226.76 
      83   -60305.585   -59589.479      274.245   -276955.05 
      84   -60288.784   -59572.639       274.26   -276645.32 
      85   -60272.372   -59556.188      274.275   -276277.56 
      86   -60256.261   -59540.038       274.29   -275863.09 
      87   -60240.441   -59524.179      274.305   -275441.37 
      88   -60224.943   -59508.642       274.32   -275039.66 
      89   -60209.677   -59493.336      274.335   -274655.53 
      90   -60194.443   -59478.063       274.35   -274264.06 
      91   -60179.172   -59462.753      274.365   -273824.37 
      92   -60163.876   -59447.418       274.38    -273324.1 
      93   -60148.538   -59432.041      274.395   -272798.06 
      94   -60133.103   -59416.566       274.41   -272286.79 
      95   -60117.653   -59401.078      274.425   -271825.97 
      96   -60102.259   -59385.644       274.44   -271411.01 
      97   -60087.006   -59370.352      274.455   -271009.08 
      98   -60071.999   -59355.305       274.47   -270574.65 
      99   -60057.407   -59340.675      274.485   -270072.63 
     100   -60043.291   -59326.519        274.5   -269510.69 
     101   -60029.606   -59312.795      274.515   -268919.39 
     102   -60016.375   -59299.525       274.53   -268354.98 
     103   -60003.644   -59286.755      274.545    -267855.1 
     104   -59991.388   -59274.459       274.56   -267429.07 
     105   -59979.414   -59262.446      274.575   -267058.07 
     106   -59967.427    -59250.42       274.59   -266699.59 
     107   -59955.365    -59238.32      274.605   -266317.33 
     108   -59943.463   -59226.378       274.62   -265845.26 
     109   -59932.006   -59214.881      274.635   -265307.12 
     110   -59921.132   -59203.969       274.65   -264733.87 
     111   -59910.801   -59193.599      274.665    -264158.3 
     112   -59900.842     -59183.6       274.68   -263584.67 
     113   -59891.186   -59173.905      274.695   -263001.86 
     114   -59881.866   -59164.546       274.71   -262412.24 
     115   -59873.016   -59155.657      274.725   -261807.23 
     116   -59864.805   -59147.406       274.74   -261185.73 
     117    -59857.25   -59139.812      274.755   -260553.44 
     118   -59850.167    -59132.69       274.77   -259932.67 
     119   -59843.214   -59125.698      274.785   -259375.28 
     120   -59836.104   -59118.549        274.8    -258930.4 
     121   -59828.977   -59111.383      274.815   -258553.75 
     122   -59822.285   -59104.652       274.83   -258166.51 
     123   -59816.356   -59098.683      274.845   -257748.63 
     124   -59811.056   -59093.344       274.86   -257319.62 
     125    -59806.09    -59088.34      274.875   -256788.36 
     126   -59801.863   -59084.073       274.89   -256116.67 
     127   -59798.805   -59080.975      274.905   -255376.61 
     128   -59796.844   -59078.976       274.92   -254541.23 
     129    -59795.04   -59077.132      274.935   -253514.49 
     130   -59792.662   -59074.716       274.95   -252480.97 
     131   -59790.371   -59072.386      274.965   -251663.46 
     132   -59788.668   -59070.643       274.98   -251109.14 
     133   -59787.442   -59069.378      274.995    -250684.9 
     134   -59787.276   -59069.173       275.01   -250298.92 
     135   -59787.901   -59069.758      275.025    -249919.5 
     136   -59788.753   -59070.572       275.04   -249259.48 
     137   -59790.243   -59072.022      275.055   -248517.74 
     138   -59793.129   -59074.869       275.07   -247886.62 
     139   -59796.307   -59078.008      275.085   -247321.12 
     140   -59798.926   -59080.588        275.1   -246815.35 
     141    -59802.85   -59084.473      275.115   -246331.93 
     142   -59808.253   -59089.836       275.13   -245872.03 
     143   -59813.462   -59095.006      275.145    -245269.8 
     144    -59819.59   -59101.095       275.16   -244632.06 
     145   -59827.612   -59109.078      275.175   -244109.74 
     146   -59836.298   -59117.724       275.19   -243497.37 
     147   -59844.423    -59125.81      275.205   -242667.44 
     148   -59852.214   -59133.562       275.22   -241872.67 
     149   -59859.645   -59140.955      275.235   -241118.54 
     150   -59866.614   -59147.885       275.25   -240529.86 
     151   -59874.122   -59155.353      275.265   -239974.18 
     152   -59882.513   -59163.705       275.28   -239393.13 
     153   -59891.313   -59172.466      275.295   -238590.39 
     154   -59900.342   -59181.455       275.31   -237704.55 
     155   -59910.017   -59191.091      275.325   -236917.71 
     156   -59920.348   -59201.384       275.34   -236350.61 
     157   -59930.933   -59211.928      275.355   -235857.51 
     158   -59941.559   -59222.516       275.37   -235164.67 
     159   -59952.895   -59233.812      275.385   -234433.01 
     160    -59965.01   -59245.888        275.4   -233593.72 
     161   -59975.534   -59256.373      275.415   -232697.45 
     162   -59982.976   -59263.776       275.43   -231925.37 
     163   -59987.655   -59268.416      275.445   -231370.19 
     164   -59991.838   -59272.559       275.46   -230796.73 
     165    -59997.41   -59278.092      275.475   -229983.03 
     166    -60004.77   -59285.414       275.49   -229065.57 
     167   -60014.079   -59294.683      275.505   -228114.93 
     168   -60025.505    -59306.07       275.52   -227252.77 
     169   -60038.505    -59319.03      275.535   -226610.74 
     170   -60051.024   -59331.511       275.55   -226198.38 
     171   -60062.172   -59342.619      275.565   -225859.28 
     172   -60072.777   -59353.186       275.58   -225454.92 
     173   -60083.301    -59363.67      275.595   -224901.48 
     174   -60093.551   -59373.881       275.61   -224233.06 
     175   -60103.656   -59383.946      275.625   -223543.55 
     176   -60113.836   -59394.088       275.64   -222926.74 
     177   -60124.079   -59404.292      275.655   -222356.87 
     178   -60134.581   -59414.755       275.67   -221701.81 
     179   -60145.407   -59425.542      275.685    -220919.4 
     180   -60156.268   -59436.363        275.7   -220043.08 
     181   -60166.711   -59446.767      275.715   -219181.78 
     182   -60176.779   -59456.796       275.73   -218432.86 
     183   -60186.736   -59466.714      275.745    -217800.7 
     184   -60196.423   -59476.361       275.76   -217206.51 
     185   -60205.794   -59485.693      275.775   -216513.14 
     186   -60214.989   -59494.849       275.79   -215658.52 
     187   -60223.807   -59503.628      275.805   -214669.48 
     188   -60232.118     -59511.9       275.82   -213704.85 
     189   -60240.181   -59519.924      275.835   -212877.73 
     190   -60248.071   -59527.774       275.85   -212237.27 
     191   -60255.604   -59535.269      275.865   -211723.91 
     192   -60262.653   -59542.278       275.88   -211210.24 
     193   -60269.107   -59548.692      275.895      -210647 
     194   -60274.837   -59554.384       275.91   -210000.19 
     195   -60280.023   -59559.531      275.925   -209327.31 
     196   -60284.987   -59564.455       275.94   -208703.13 
     197    -60289.87   -59569.299      275.955   -208155.51 
     198   -60294.784   -59574.174       275.97   -207621.08 
     199   -60300.088   -59579.439      275.985   -206997.85 
     200   -60305.901   -59585.213          276    -206219.1 
     201   -60311.764   -59591.037      276.015   -205303.29 
     202   -60317.108   -59596.341       276.03   -204388.86 
     203   -60321.667   -59600.861      276.045    -203592.6 
     204    -60325.56   -59604.715       276.06   -202926.68 
     205   -60329.187   -59608.303      276.075   -202313.13 
     206   -60333.067   -59612.144       276.09   -201642.56 
     207   -60337.497   -59616.535      276.105   -200842.66 
     208   -60342.391    -59621.39       276.12   -199949.46 
     209   -60347.511    -59626.47      276.135   -199058.47 
     210    -60352.67    -59631.59       276.15   -198254.42 
     211   -60357.834   -59636.715      276.165   -197538.64 
     212   -60363.315   -59642.157       276.18    -196866.6 
     213   -60369.315   -59648.118      276.195   -196206.12 
     214   -60375.812   -59654.575       276.21   -195531.75 
     215   -60382.854   -59661.579      276.225   -194784.25 
     216   -60389.667   -59668.352       276.24   -193923.11 
     217   -60396.186   -59674.832      276.255   -193046.27 
     218   -60403.726   -59682.332       276.27   -192248.34 
     219   -60411.902    -59690.47      276.285   -191529.29 
     220   -60419.859   -59698.387        276.3   -190858.16 
     221   -60427.681    -59706.17      276.315   -190194.27 
     222   -60435.263   -59713.713       276.33   -189518.54 
     223   -60441.898   -59720.309      276.345   -188822.09 
     224   -60447.283   -59725.655       276.36   -188092.11 
     225   -60451.749   -59730.082      276.375   -187312.35 
     226   -60456.072   -59734.365       276.39   -186488.73 
     227   -60461.009   -59739.264      276.405   -185700.77 
     228   -60466.747   -59744.962       276.42   -184991.25 
     229   -60473.104    -59751.28      276.435   -184355.66 
     230    -60479.53   -59757.667       276.45    -183761.6 
     231   -60485.078   -59763.176      276.465   -183172.95 
     232    -60489.23   -59767.288       276.48   -182554.35 
     233   -60492.636   -59770.655      276.495   -181854.77 
     234   -60496.224   -59774.204       276.51   -181047.22 
     235   -60500.367   -59778.307      276.525   -180165.24 
     236   -60504.932   -59782.834       276.54   -179285.05 
     237   -60509.695   -59787.557      276.555   -178467.75 
     238   -60514.522   -59792.345       276.57   -177736.29 
     239   -60519.384   -59797.168      276.585    -177087.7 
     240   -60524.356   -59802.101        276.6    -176478.8 
     241   -60529.782   -59807.488      276.615   -175852.42 
     242   -60535.856   -59813.523       276.63   -175181.94 
     243   -60542.381   -59820.009      276.645   -174486.49 
     244   -60549.203   -59826.791       276.66   -173799.04 
     245   -60556.375   -59833.924      276.675   -173128.18 
     246   -60563.803   -59841.313       276.69   -172453.56 
     247   -60571.345   -59848.816      276.705   -171731.34 
     248   -60578.884   -59856.316       276.72   -170921.64 
     249   -60585.906   -59863.298      276.735   -169974.74 
     250    -60591.72   -59869.074       276.75   -168901.24 
     251   -60596.689   -59874.003      276.765   -167882.84 
     252   -60602.028   -59879.303       276.78   -167016.64 
     253   -60608.211   -59885.446      276.795    -166281.8 
     254   -60615.042   -59892.239       276.81   -165658.19 
     255   -60621.682    -59898.84      276.825   -165128.65 
     256   -60626.693   -59903.811       276.84    -164606.2 
     257   -60629.827   -59906.906      276.855   -164003.29 
     258   -60632.327   -59909.367       276.87   -163359.56 
     259   -60635.308   -59912.309      276.885    -162726.6 
     260   -60638.996   -59915.957        276.9   -162126.29 
     261   -60643.362   -59920.284      276.915   -161527.27 
     262   -60648.516   -59925.399       276.93   -160882.85 
     263   -60654.485   -59931.329      276.945   -160163.03 
     264   -60661.282   -59938.087       276.96   -159383.11 
     265   -60668.739   -59945.505      276.975   -158591.55 
     266   -60675.842   -59952.569       276.99   -157823.13 
     267   -60681.274   -59957.961      277.005   -157118.28 
     268    -60684.86   -59961.508       277.02   -156497.67 
     269   -60687.814   -59964.423      277.035   -155907.79 
     270   -60691.476   -59968.046       277.05   -155277.28 
     271   -60696.398   -59972.929      277.065   -154600.61 
     272   -60702.429   -59978.921       277.08   -153934.71 
     273   -60708.811   -59985.264      277.095   -153340.23 
     274   -60714.184   -59990.597       277.11   -152829.67 
     275   -60717.786    -59994.16      277.125   -152297.91 
     276   -60720.453   -59996.788       277.14   -151644.02 
     277   -60723.399   -59999.695      277.155   -150892.14 
     278   -60727.169   -60003.425       277.17   -150131.44 
     279   -60731.603   -60007.821      277.185   -149435.02 
     280   -60736.441   -60012.619        277.2   -148813.21 
     281   -60741.766   -60017.905      277.215   -148219.65 
     282   -60747.528   -60023.628       277.23   -147629.35 
     283   -60753.227   -60029.288      277.245   -147041.07 
     284   -60757.909   -60033.931       277.26   -146456.58 
     285   -60761.179   -60037.161      277.275   -145853.66 
     286    -60764.07   -60040.013       277.29      -145173 
     287    -60767.59   -60043.494      277.305   -144414.55 
     288   -60772.122   -60047.987       277.32   -143671.96 
     289   -60777.614    -60053.44      277.335   -143021.37 
     290   -60783.421   -60059.207       277.35   -142478.12 
     291   -60788.575   -60064.322      277.365   -141987.12 
     292   -60792.292       -60068       277.38   -141493.53 
     293   -60794.936   -60070.605      277.395   -140982.22 
     294   -60797.444   -60073.074       277.41   -140494.28 
     295   -60800.501   -60076.092      277.425   -140029.12 
     296   -60804.383   -60079.935       277.44   -139569.69 
     297   -60808.768    -60084.28      277.455   -139162.58 
     298   -60813.535   -60089.008       277.47   -138782.43 
     299   -60818.677   -60094.111      277.485   -138344.65 
     300   -60824.066    -60099.46        277.5   -137740.78 
     301   -60828.944     -60104.3      277.515   -137047.56 
     302   -60833.003    -60108.32       277.53   -136371.27 
     303   -60836.558   -60111.836      277.545   -135753.72 
     304   -60840.254   -60115.492       277.56   -135208.36 
     305    -60844.32   -60119.519      277.575   -134806.72 
     306   -60848.681   -60123.841       277.59   -134552.45 
     307   -60852.899   -60128.019      277.605   -134326.58 
     308   -60856.369   -60131.451       277.62   -133996.22 
     309   -60858.716   -60133.758      277.635   -133577.22 
     310   -60860.257    -60135.26       277.65   -133182.36 
     311   -60861.976    -60136.94      277.665   -132798.76 
     312   -60864.558   -60139.483       277.68   -132365.83 
     313   -60867.837   -60142.723      277.695   -131912.23 
     314   -60871.467   -60146.314       277.71   -131527.65 
     315   -60875.523    -60150.33      277.725   -131159.04 
     316   -60879.628   -60154.396       277.74   -130725.79 
     317   -60883.142   -60157.871      277.755   -130230.03 
     318   -60885.666   -60160.356       277.77    -129743.7 
     319   -60887.711   -60162.361      277.785   -129278.75 
     320   -60890.054   -60164.666        277.8   -128835.32 
     321   -60893.311   -60167.883      277.815   -128427.48 
     322   -60897.287    -60171.82       277.83   -128102.01 
     323   -60901.273   -60175.767      277.845   -127813.93 
     324   -60904.026   -60178.481       277.86   -127489.11 
     325   -60904.817   -60179.233      277.875   -127125.38 
     326   -60903.942   -60178.319       277.89    -126830.1 
     327   -60902.582    -60176.92      277.905   -126615.83 
     328   -60901.693   -60175.991       277.92   -126436.75 
     329     -60901.9   -60176.159      277.935   -126218.46 
     330   -60903.129   -60177.349       277.95   -125983.26 
     331   -60905.245   -60179.425      277.965   -125754.87 
     332   -60908.121   -60182.263       277.98   -125528.42 
     333   -60911.469   -60185.571      277.995   -125244.07 
     334   -60914.584   -60188.648       278.01   -124913.96 
     335   -60916.832   -60190.856      278.025   -124615.59 
     336   -60918.173   -60192.158       278.04   -124397.76 
     337   -60918.987   -60192.932      278.055   -124234.83 
     338   -60919.289   -60193.195       278.07   -124104.22 
     339   -60918.125   -60191.992      278.085   -124021.31 
     340   -60914.926   -60188.754        278.1   -124009.79 
     341   -60914.439   -60188.228      278.115   -123999.58 
     342   -60920.575   -60194.324       278.13   -123931.51 
     343   -60927.426   -60201.136      278.145   -123864.79 
     344   -60930.792   -60204.464       278.16   -123768.85 
     345   -60932.348    -60205.98      278.175   -123573.29 
     346   -60933.579   -60207.172       278.19   -123329.98 
     347   -60935.708   -60209.262      278.205   -123115.71 
     348   -60939.725    -60213.24       278.22   -122993.89 
     349   -60945.023   -60218.499      278.235   -122944.76 
     350   -60950.355   -60223.791       278.25   -122855.93 
     351   -60954.567   -60227.964      278.265   -122684.15 
     352   -60957.346   -60230.704       278.28   -122525.75 
     353   -60959.371    -60232.69      278.295   -122437.31 
     354   -60961.708   -60234.988       278.31   -122374.34 
     355   -60964.632   -60237.873      278.325   -122289.14 
     356   -60967.721   -60240.923       278.34   -122268.27 
     357   -60970.256   -60243.418      278.355   -122421.74 
     358   -60971.558   -60244.682       278.37   -122671.32 
     359   -60971.607   -60244.691      278.385   -122819.54 
     360   -60970.662   -60243.707        278.4   -122832.54 
     361   -60968.939   -60241.945      278.415   -122832.67 
     362   -60966.913   -60239.879       278.43   -122884.55 
     363   -60965.313    -60238.24      278.445   -122892.14 
     364   -60964.476   -60237.364       278.46   -122825.27 
     365   -60964.007   -60236.856      278.475   -122763.56 
     366   -60963.212   -60236.022       278.49   -122750.34 
     367   -60961.392   -60234.162      278.505   -122739.06 
     368   -60958.375   -60231.107       278.52   -122749.23 
     369   -60954.694   -60227.386      278.535   -122830.39 
     370   -60950.825   -60223.478       278.55   -122981.37 
     371   -60946.897   -60219.511      278.565   -123116.24 
     372   -60943.054   -60215.629       278.58   -123190.09 
     373   -60938.989   -60211.524      278.595   -123257.21 
     374   -60934.012   -60206.509       278.61   -123328.98 
     375   -60928.071   -60200.529      278.625   -123346.97 
     376   -60921.757   -60194.175       278.64   -123304.81 
     377   -60916.283   -60188.662      278.655   -123304.13 
     378   -60913.849   -60186.189       278.67    -123444.8 
     379   -60913.734   -60186.035      278.685   -123703.95 
     380   -60913.497   -60185.759        278.7   -123951.21 
     381   -60912.135   -60184.358      278.715   -124033.43 
     382    -60908.87   -60181.053       278.73   -124003.38 
     383   -60904.139   -60176.283      278.745   -124026.03 
     384   -60899.619   -60171.723       278.76   -124236.04 
     385    -60896.58   -60168.645      278.775   -124480.37 
     386   -60895.162   -60167.188       278.79   -124617.47 
     387   -60893.811   -60165.798      278.805   -124896.72 
     388   -60891.232    -60163.18       278.82   -125398.29 
     389   -60887.473   -60159.382      278.835   -125794.03 
     390   -60883.817   -60155.686       278.85   -126062.96 
     391   -60881.008   -60152.838      278.865   -126488.01 
     392   -60879.026   -60150.818       278.88   -126993.55 
     393   -60878.368    -60150.12      278.895   -127192.09 
     394   -60878.449   -60150.162       278.91   -127297.19 
     395   -60878.471   -60150.145      278.925   -127536.03 
     396   -60876.771   -60148.406       278.94   -127637.22 
     397   -60872.793   -60144.388      278.955   -127555.95 
     398    -60867.32   -60138.876       278.97   -127717.34 
     399   -60862.306   -60133.824      278.985   -128069.05 
     400    -60858.39   -60129.868          279   -128291.58 
     401   -60853.254   -60124.693      279.015   -128481.96 
     402   -60848.557   -60119.957       279.03   -128853.31 
     403   -60847.682   -60119.043      279.045   -129275.43 
     404   -60847.698    -60119.02       279.06   -129426.92 
     405   -60846.514   -60117.796      279.075   -129498.68 
     406   -60845.081   -60116.324       279.09   -129804.23 
     407   -60843.955   -60115.159      279.105   -130061.99 
     408   -60843.379   -60114.544       279.12   -130135.11 
     409   -60842.497   -60113.623      279.135   -130311.75 
     410   -60840.731   -60111.817       279.15   -130587.16 
     411   -60838.937   -60109.985      279.165   -130743.08 
     412   -60838.158   -60109.166       279.18   -130879.44 
     413   -60838.511    -60109.48      279.195   -131208.18 
     414   -60838.744   -60109.674       279.21    -131630.6 
     415   -60836.899   -60107.789      279.225   -131927.11 
     416   -60832.421   -60103.272       279.24   -132088.97 
     417   -60826.502   -60097.314      279.255   -132295.28 
     418   -60820.664   -60091.437       279.27   -132596.15 
     419   -60815.488   -60086.222      279.285   -132993.43 
     420   -60811.526   -60082.221        279.3   -133427.02 
     421   -60809.064    -60079.72      279.315   -133799.53 
     422   -60807.747   -60078.363       279.33    -134105.1 
     423   -60806.589   -60077.167      279.345   -134371.26 
     424   -60804.519   -60075.058       279.36   -134624.39 
     425   -60801.144   -60071.643      279.375   -134836.71 
     426   -60796.539   -60066.999       279.39   -134977.68 
     427   -60791.038   -60061.459      279.405    -135141.6 
     428   -60785.548   -60055.929       279.42   -135382.81 
     429   -60781.277   -60051.619      279.435   -135686.13 
     430   -60778.528   -60048.831       279.45   -135991.98 
     431   -60776.374   -60046.638      279.465   -136276.87 
     432   -60773.853   -60044.078       279.48   -136560.47 
     433   -60770.805   -60040.991      279.495   -136882.89 
     434   -60767.774   -60037.921       279.51   -137241.28 
     435   -60765.165   -60035.272      279.525    -137596.1 
     436   -60763.779   -60033.847       279.54   -137897.75 
     437   -60763.907   -60033.936      279.555   -138046.75 
     438    -60765.11   -60035.099       279.57   -138204.77 
     439   -60766.171   -60036.122      279.585    -138499.7 
     440   -60765.124   -60035.036        279.6   -138733.87 
     441    -60763.06   -60032.932      279.615   -138710.88 
     442   -60760.007    -60029.84       279.63   -138819.99 
     443   -60756.726    -60026.52      279.645   -139202.57 
     444   -60753.631   -60023.386       279.66   -139446.89 
     445   -60750.855    -60020.57      279.675   -139415.43 
     446   -60747.971   -60017.647       279.69   -139724.24 
     447   -60744.552   -60014.189      279.705   -140472.37 
     448   -60739.886   -60009.484       279.72   -140882.74 
     449   -60734.849   -60004.408      279.735   -140890.38 
     450    -60728.96    -59998.48       279.75   -141008.24 
     451   -60722.108   -59991.589      279.765   -141461.79 
     452   -60714.518    -59983.96       279.78   -141626.19 
     453   -60707.024   -59976.426      279.795    -141464.3 
     454   -60698.955   -59968.318       279.81   -141466.35 
     455    -60692.84   -59962.164      279.825   -141711.51 
     456   -60690.404   -59959.689       279.84   -141575.04 
     457   -60680.397   -59949.642      279.855   -140929.64 
     458   -60673.119   -59942.326       279.87   -141061.92 
     459   -60669.479   -59938.646      279.885   -141423.87 
     460    -60667.29   -59936.418        279.9   -141572.59 
     461   -60666.436   -59935.525      279.915    -141431.1 
     462   -60664.703   -59933.753       279.93   -141730.95 
     463    -60662.15   -59931.161      279.945   -142386.22 
     464   -60659.186   -59928.158       279.96   -142677.77 
     465   -60656.356   -59925.289      279.975   -142752.72 
     466   -60653.647    -59922.54       279.99   -143119.55 
     467   -60650.826    -59919.68      280.005   -143742.57 
     468   -60648.419   -59917.233       280.02   -143934.55 
     469   -60646.849   -59915.625      280.035    -143700.6 
     470   -60644.737   -59913.473       280.05   -143634.83 
     471   -60641.949   -59910.646      280.065   -144226.68 
     472   -60634.777   -59903.435       280.08   -145049.68 
     473   -60627.078   -59895.697      280.095   -145165.75 
     474   -60620.104   -59888.684       280.11   -145056.26 
     475   -60613.672   -59882.212      280.125      -145029 
     476   -60608.052   -59876.554       280.14   -145190.81 
     477   -60602.292   -59870.754      280.155   -145468.57 
     478   -60597.016   -59865.439       280.17   -145632.18 
     479   -60592.526   -59860.909      280.185   -145635.54 
     480   -60588.109   -59856.454        280.2   -145730.68 
     481    -60583.84   -59852.145      280.215   -146051.03 
     482    -60579.88   -59848.146       280.23   -146463.05 
     483    -60576.65   -59844.878      280.245    -146764.9 
     484   -60574.031   -59842.219       280.26   -146761.38 
     485   -60569.502   -59837.651      280.275   -146151.53 
     486    -60562.29     -59830.4       280.29   -145816.77 
     487   -60555.414   -59823.485      280.305   -145664.46 
     488   -60550.013   -59818.045       280.32   -145314.44 
     489   -60546.185   -59814.177      280.335   -144882.78 
     490   -60542.893   -59810.846       280.35   -144698.62 
     491   -60540.285   -59808.199      280.365   -144870.31 
     492   -60538.107   -59805.982       280.38   -145058.25 
     493   -60537.435   -59805.271      280.395   -145121.24 
     494   -60537.739   -59805.535       280.41   -145210.15 
     495   -60539.489   -59807.246      280.425    -145676.1 
     496   -60541.049   -59808.767       280.44   -146231.08 
     497   -60542.041   -59809.719      280.455   -146416.02 
     498   -60545.443   -59813.082       280.47   -146289.97 
     499   -60551.252   -59818.852      280.485   -146302.59 
     500    -60555.47   -59823.031        280.5   -146545.87 
     501   -60558.034   -59825.556      280.515   -146556.36 
     502   -60561.789   -59829.272       280.53   -146233.75 
     503   -60566.048   -59833.492      280.545   -145818.83 
     504   -60570.217   -59837.622       280.56   -145691.38 
     505   -60571.011   -59838.377      280.575    -145702.2 
     506   -60569.122   -59836.448       280.59   -145511.33 
     507   -60570.751   -59838.038      280.605   -145199.34 
     508   -60572.281   -59839.529       280.62   -144789.34 
     509   -60569.703   -59836.912      280.635   -144536.53 
     510   -60568.024   -59835.194       280.65   -144594.28 
     511   -60568.515   -59835.645      280.665   -144827.15 
     512   -60569.951   -59837.042       280.68   -145178.76 
     513   -60566.159   -59833.212      280.695   -145546.05 
     514   -60561.127    -59828.14       280.71   -145708.96 
     515   -60560.079   -59827.053      280.725   -146024.66 
     516   -60558.192   -59825.127       280.74   -146191.31 
     517   -60556.023   -59822.919      280.755   -145954.56 
     518    -60557.36   -59824.217       280.77   -145733.67 
     519   -60561.448   -59828.265      280.785   -145475.48 
     520   -60566.995   -59833.773        280.8   -145443.18 
     521   -60569.494   -59836.233      280.815   -145427.29 
     522   -60574.278   -59840.978       280.83   -144946.43 
     523   -60578.144   -59844.804      280.845    -144222.8 
     524   -60575.408    -59842.03       280.86    -144226.2 
     525   -60570.463   -59837.045      280.875   -144359.74 
     526   -60572.267    -59838.81       280.89   -144021.13 
     527   -60570.322   -59836.825      280.905   -143376.14 
     528   -60566.994   -59833.459       280.92   -143286.12 
     529    -60567.07   -59833.496      280.935   -143486.91 
     530   -60568.864   -59835.251       280.95   -143042.47 
     531   -60563.777   -59830.124      280.965   -142201.13 
     532   -60564.033   -59830.341       280.98    -142193.2 
     533   -60565.586   -59831.855      280.995    -142726.5 
     534   -60561.614   -59827.844       281.01   -142616.53 
     535   -60562.198   -59828.388      281.025   -142051.01 
     536    -60564.64   -59830.791       281.04   -141777.24 
     537   -60562.696   -59828.809      281.055   -141927.05 
     538   -60560.377    -59826.45       281.07   -141992.96 
     539   -60565.178   -59831.212      281.085    -141848.1 
     540   -60565.151   -59831.146        281.1   -141342.71 
     541   -60562.807   -59828.763      281.115   -141211.64 
     542   -60564.317   -59830.233       281.13   -141414.51 
     543   -60561.806   -59827.683      281.145   -141382.11 
     544   -60557.297   -59823.135       281.16   -141094.01 
     545   -60559.687   -59825.486      281.175   -140948.35 
     546   -60558.792   -59824.552       281.19   -140858.91 
     547   -60556.015   -59821.736      281.205   -140885.42 
     548   -60556.201   -59821.882       281.22   -141182.87 
     549   -60557.264   -59822.906      281.235   -141302.84 
     550   -60553.942   -59819.545       281.25   -140896.09 
     551   -60557.928   -59823.492      281.265   -141158.56 
     552   -60555.404   -59820.929       281.28   -141944.23 
     553    -60550.35   -59815.835      281.295   -142071.07 
     554   -60551.487   -59816.934       281.31   -141507.24 
     555   -60549.929   -59815.336      281.325    -141060.5 
     556   -60546.793   -59812.161       281.34   -141032.75 
     557   -60550.847   -59816.176      281.355    -140922.6 
     558    -60554.21     -59819.5       281.37   -140405.52 
     559   -60555.238   -59820.488      281.385   -140055.23 
     560   -60561.425   -59826.637        281.4   -140072.58 
     561     -60565.1   -59830.272      281.415   -139538.03 
     562   -60561.984   -59827.117       281.43   -138499.86 
     563   -60560.626    -59825.72      281.445   -138136.54 
     564   -60560.498   -59825.552       281.46   -138225.57 
     565   -60555.008   -59820.023      281.475   -137801.32 
     566   -60551.175   -59816.151       281.49   -137235.22 
     567   -60549.874   -59814.811      281.505   -137045.28 
     568   -60545.366   -59810.264       281.52   -137279.56 
     569   -60542.527   -59807.385      281.535   -137484.17 
     570   -60545.618   -59810.438       281.55   -137582.16 
     571   -60545.955   -59810.735      281.565   -137556.17 
     572   -60543.788   -59808.529       281.58   -137703.27 
     573    -60545.64   -59810.343      281.595   -137949.52 
     574   -60547.524   -59812.187       281.61   -137886.22 
     575   -60547.136    -59811.76      281.625   -138017.21 
     576    -60548.02   -59812.605       281.64   -137745.69 
     577   -60550.219   -59814.765      281.655   -137256.55 
     578   -60548.997   -59813.503       281.67   -136901.27 
     579   -60552.255   -59816.722      281.685   -136598.37 
     580   -60555.302   -59819.729        281.7   -136350.09 
     581   -60553.108   -59817.497      281.715    -136099.3 
     582   -60556.753   -59821.103       281.73   -135875.35 
     583    -60558.88   -59823.191      281.745   -135565.43 
     584   -60557.331   -59821.602       281.76   -135357.63 
     585   -60558.973   -59823.205      281.775   -135449.13 
     586    -60558.74   -59822.933       281.79    -135512.2 
     587   -60555.176   -59819.329      281.805   -135412.49 
     588   -60553.344   -59817.459       281.82   -135306.68 
     589   -60550.942   -59815.017      281.835   -135636.09 
     590    -60541.84   -59805.876       281.85   -135921.64 
     591   -60537.739   -59801.736      281.865   -135888.47 
     592   -60539.829   -59803.787       281.88   -135514.77 
     593   -60538.437   -59802.356      281.895   -134779.08 
     594   -60538.788   -59802.667       281.91   -134412.46 
     595    -60541.03   -59804.871      281.925   -134394.54 
     596   -60546.626   -59810.427       281.94   -134007.07 
     597   -60553.446   -59817.208      281.955   -133383.03 
     598   -60558.618   -59822.341       281.97   -133156.22 
     599   -60562.899   -59826.583      281.985   -133364.47 
     600   -60568.941   -59832.585          282   -133089.64 
     601   -60571.603   -59835.208      282.015   -132671.18 
     602   -60571.874    -59835.44       282.03   -132671.84 
     603   -60572.668   -59836.195      282.045   -132984.72 
     604   -60573.893   -59837.381       282.06   -133107.73 
     605   -60575.463   -59838.912      282.075   -132914.24 
     606   -60576.804   -59840.213       282.09   -132682.51 
     607   -60576.832   -59840.202      282.105   -132437.86 
     608   -60572.134   -59835.465       282.12   -132255.45 
     609   -60567.925   -59831.217      282.135   -132182.92 
     610   -60564.611   -59827.864       282.15   -131734.84 
     611   -60562.352   -59825.566      282.165   -131483.63 
     612    -60561.11   -59824.285       282.18   -131612.54 
     613   -60561.499   -59824.634      282.195   -131684.27 
     614   -60564.992   -59828.088       282.21   -131384.99 
     615   -60569.397   -59832.454      282.225   -130962.21 
     616   -60573.356   -59836.373       282.24   -130884.53 
     617   -60575.428   -59838.406      282.255   -131160.27 
     618   -60575.713   -59838.653       282.27   -131379.52 
     619   -60576.761   -59839.661      282.285   -131369.45 
     620   -60577.433   -59840.295        282.3   -131293.44 
     621   -60577.155   -59839.977      282.315   -131501.84 
     622   -60576.578    -59839.36       282.33   -131969.31 
     623   -60575.701   -59838.444      282.345   -132270.21 
     624   -60576.517   -59839.221       282.36   -132201.88 
     625   -60577.871   -59840.536      282.375   -131886.49 
     626   -60579.138   -59841.764       282.39   -131918.69 
     627    -60577.58   -59840.167      282.405   -132473.99 
     628   -60573.081   -59835.629       282.42   -132708.91 
     629   -60569.395   -59831.903      282.435   -132660.09 
     630   -60566.191   -59828.661       282.45   -132512.68 
     631   -60563.709   -59826.139      282.465   -132523.95 
     632   -60561.746   -59824.138       282.48   -132665.49 
     633   -60560.209   -59822.561      282.495   -132675.36 
     634   -60560.465   -59822.778       282.51   -132472.55 
     635   -60561.345   -59823.618      282.525   -132244.69 
     636   -60562.748   -59824.983       282.54   -132233.57 
     637   -60564.457   -59826.652      282.555   -132352.63 
     638    -60563.52   -59825.676       282.57   -132228.74 
     639    -60558.88   -59820.997      282.585   -132095.82 
     640   -60553.231   -59815.309        282.6   -132114.18 
     641   -60547.768   -59809.807      282.615    -132151.5 
     642   -60544.354   -59806.353       282.63   -132355.57 
     643   -60545.743   -59807.703      282.645   -132481.08 
     644   -60542.925   -59804.846       282.66   -131368.92 
     645   -60540.107   -59801.989      282.675    -131126.1 
     646   -60540.712   -59802.555       282.69   -130885.95 
     647   -60541.793   -59803.596      282.705   -130798.53 
     648   -60542.631   -59804.395       282.72    -130836.8 
     649   -60543.749   -59805.474      282.735   -130847.72 
     650   -60544.234    -59805.92       282.75   -130930.96 
     651   -60543.956   -59805.603      282.765   -131108.83 
     652   -60543.303    -59804.91       282.78   -131173.29 
     653   -60542.221    -59803.79      282.795   -131093.59 
     654   -60541.518   -59803.048       282.81   -131184.33 
     655   -60541.434   -59802.924      282.825    -131658.5 
     656   -60540.795   -59802.247       282.84   -132094.09 
     657   -60541.199   -59802.611      282.855   -132142.29 
     658   -60542.102   -59803.475       282.87    -131878.6 
     659   -60540.798   -59802.131      282.885   -132145.79 
     660    -60536.92   -59798.215        282.9   -132999.14 
     661   -60531.622   -59792.877      282.915   -133235.18 
     662    -60529.11   -59790.326       282.93   -132604.59 
     663   -60526.663    -59787.84      282.945   -131968.49 
     664    -60525.85   -59786.988       282.96   -131844.18 
     665   -60526.451    -59787.55      282.975   -131988.77 
     666   -60531.081    -59792.14       282.99   -131664.36 
     667   -60536.471   -59797.491      283.005   -131291.98 
     668   -60540.505   -59801.487       283.02   -130984.91 
     669   -60539.895   -59800.837      283.035    -130978.6 
     670   -60538.294   -59799.197       283.05   -130999.31 
     671    -60534.88   -59795.744      283.065   -131262.75 
     672    -60530.94   -59791.764       283.08   -131833.39 
     673    -60525.48   -59786.266      283.095   -132223.65 
     674   -60520.416   -59781.162       283.11   -132358.01 
     675   -60515.649   -59776.356      283.125   -132313.19 
     676   -60511.859   -59772.527       283.14   -132469.76 
     677   -60508.955   -59769.584      283.155   -132657.35 
     678   -60506.841    -59767.43       283.17   -132525.43 
     679   -60505.109    -59765.66      283.185   -132123.85 
     680   -60502.274   -59762.785        283.2   -131878.76 
     681   -60499.242   -59759.714      283.215   -131996.13 
     682   -60495.601   -59756.034       283.23   -132478.43 
     683   -60491.748   -59752.142      283.245   -133003.85 
     684   -60488.863   -59749.217       283.26   -133275.81 
     685   -60485.853   -59746.168      283.275   -133476.71 
     686   -60483.211   -59743.487       283.29   -133910.13 
     687   -60480.909   -59741.146      283.305   -134557.68 
     688   -60478.354   -59738.552       283.32   -135127.45 
     689   -60474.984   -59735.143      283.335   -135428.74 
     690   -60469.452   -59729.572       283.35   -135322.42 
     691   -60462.946   -59723.026      283.365   -135231.47 
     692   -60456.305   -59716.346       283.38    -135370.5 
     693   -60449.249   -59709.251      283.395   -135405.54 
     694   -60442.899   -59702.862       283.41   -135175.64 
     695     -60437.3   -59697.223      283.425   -134854.92 
     696   -60432.261   -59692.145       283.44   -134751.04 
     697   -60428.106   -59687.952      283.455   -134788.53 
     698   -60423.786   -59683.592       283.47   -134599.44 
     699   -60418.725   -59678.492      283.485   -134220.46 
     700   -60414.233   -59673.961        283.5   -134061.19 
     701   -60410.708   -59670.397      283.515   -134020.58 
     702   -60408.012   -59667.662       283.53   -134192.34 
     703   -60406.133   -59665.743      283.545   -134595.49 
     704   -60404.733   -59664.304       283.56   -135018.46 
     705   -60404.107   -59663.639      283.575   -135374.48 
     706   -60403.294   -59662.787       283.59   -135610.23 
     707   -60401.931   -59661.385      283.605   -135881.88 
     708   -60401.979   -59661.393       283.62   -136128.25 
     709   -60403.225     -59662.6      283.635   -136261.68 
     710   -60405.417   -59664.753       283.65   -136224.54 
     711   -60407.233    -59666.53      283.665   -135985.53 
     712   -60408.008   -59667.265       283.68   -135725.15 
     713   -60408.713   -59667.932      283.695   -135602.47 
     714   -60409.061    -59668.24       283.71   -135599.54 
     715   -60410.552   -59669.693      283.725   -135623.68 
     716   -60412.385   -59671.486       283.74   -135575.38 
     717    -60414.86   -59673.922      283.755   -135527.18 
     718   -60418.311   -59677.334       283.77   -135633.87 
     719   -60420.975   -59679.958      283.785   -136014.35 
     720   -60423.379   -59682.324        283.8   -136345.11 
     721    -60424.57   -59683.475      283.815   -136428.49 
     722   -60424.275   -59683.141       283.83   -136750.83 
     723   -60421.116   -59679.943      283.845    -137834.6 
     724   -60414.023   -59672.811       283.86   -138941.57 
     725   -60406.329   -59665.078      283.875   -139165.16 
     726   -60399.482   -59658.191       283.89   -139203.51 
     727   -60394.444   -59653.114      283.905   -139393.51 
     728   -60390.352   -59648.984       283.92   -139394.97 
     729   -60387.755   -59646.347      283.935   -139046.86 
     730   -60385.194   -59643.747       283.95   -138557.28 
     731    -60382.96   -59641.473      283.965   -138325.44 
     732   -60379.621   -59638.096       283.98   -138161.38 
     733    -60375.98   -59634.416      283.995   -137684.48 
     734   -60369.369   -59627.765       284.01   -137355.33 
     735   -60361.718   -59620.075      284.025   -137665.79 
     736   -60353.717   -59612.034       284.04   -138102.27 
     737   -60346.658   -59604.937      284.055   -138197.14 
     738   -60339.041   -59597.281       284.07   -138261.97 
     739    -60331.39    -59589.59      284.085   -138697.86 
     740   -60323.628   -59581.789        284.1   -139348.67 
     741    -60316.39   -59574.512      284.115    -139753.2 
     742    -60309.69   -59567.773       284.13   -139922.67 
     743   -60302.679   -59560.723      284.145   -140129.56 
     744    -60296.36   -59554.365       284.16   -140594.54 
     745   -60290.251   -59548.216      284.175   -140989.17 
     746   -60285.502   -59543.428       284.19   -140982.27 
     747   -60281.279   -59539.166      284.205   -140560.33 
     748   -60276.833   -59534.681       284.22   -140334.48 
     749   -60271.933   -59529.741      284.235    -140447.6 
     750   -60266.913   -59524.682       284.25   -140440.18 
     751    -60263.05    -59520.78      284.265   -140135.78 
     752   -60259.564   -59517.255       284.28   -140108.42 
     753   -60258.045   -59515.697      284.295   -140485.17 
     754   -60257.465   -59515.078       284.31   -140784.26 
     755   -60258.336   -59515.909      284.325   -140484.03 
     756   -60258.866     -59516.4       284.34   -140064.89 
     757   -60259.019   -59516.514      284.355   -140212.84 
     758   -60259.283   -59516.739       284.37   -140723.63 
     759   -60260.188   -59517.605      284.385   -140899.22 
     760   -60261.877   -59519.255        284.4   -140909.16 
     761   -60263.077   -59520.416      284.415   -140976.73 
     762   -60264.722   -59522.021       284.43   -141129.96 
     763   -60267.976   -59525.236      284.445   -141316.13 
     764   -60272.069    -59529.29       284.46   -141484.91 
     765   -60276.613   -59533.795      284.475   -141570.39 
     766   -60279.486   -59536.629       284.49   -141434.17 
     767   -60281.503   -59538.607      284.505   -141491.91 
     768   -60282.875   -59539.939       284.52   -141855.37 
     769    -60282.47   -59539.495      284.535   -142153.31 
     770   -60280.226   -59537.212       284.55   -142211.02 
     771   -60277.383    -59534.33      284.565   -142235.86 
     772   -60276.676   -59533.584       284.58   -142292.14 
     773   -60276.817   -59533.685      284.595   -142446.13 
     774   -60277.757   -59534.586       284.61    -142530.2 
     775   -60278.599   -59535.389      284.625   -142489.25 
     776   -60279.491   -59536.242       284.64   -142463.47 
     777   -60276.916   -59533.628      284.655   -142451.24 
     778   -60270.857    -59527.53       284.67   -142250.24 
     779   -60268.938   -59525.571      284.685   -141900.51 
     780   -60269.217   -59525.812        284.7   -141519.97 
     781   -60265.627   -59522.182      284.715   -141206.53 
     782   -60260.033   -59516.549       284.73   -141120.48 
     783   -60256.094   -59512.571      284.745   -141127.76 
     784   -60253.367   -59509.804       284.76    -140947.1 
     785   -60251.481    -59507.88      284.775   -140653.89 
     786   -60249.554   -59505.913       284.79   -140473.88 
     787   -60245.601   -59501.921      284.805   -140502.55 
     788   -60244.878   -59501.159       284.82   -140566.92 
     789   -60246.549   -59502.791      284.835   -140643.38 
     790   -60243.918    -59500.12       284.85    -140792.8 
     791    -60239.56   -59495.723      284.865   -141075.05 
     792   -60235.187   -59491.311       284.88   -141503.19 
     793   -60231.893   -59487.979      284.895   -141770.08 
     794   -60230.492   -59486.538       284.91   -141760.96 
     795   -60230.794   -59486.801      284.925   -141620.81 
     796   -60231.032       -59487       284.94   -141455.87 
     797   -60225.985   -59481.914      284.955   -141186.72 
     798   -60221.056   -59476.946       284.97   -140983.05 
     799   -60218.984   -59474.834      284.985   -140798.75 
     800   -60215.436   -59471.247          285   -140799.42 
     801   -60210.293   -59466.065      285.015   -140916.01 
     802   -60207.136   -59462.869       285.03   -140836.75 
     803   -60207.067   -59462.761      285.045   -140520.34 
     804   -60207.576    -59463.23       285.06   -140370.36 
     805   -60208.486   -59464.101      285.075   -140454.49 
     806    -60208.41   -59463.986       285.09   -140485.46 
     807    -60206.94   -59462.477      285.105   -140358.21 
     808   -60202.185   -59457.682       285.12   -140442.52 
     809   -60196.262   -59451.721      285.135   -140977.73 
     810    -60191.34    -59446.76       285.15   -141404.76 
     811   -60188.919   -59444.299      285.165   -141523.05 
     812   -60189.039    -59444.38       285.18    -141516.6 
     813   -60190.734   -59446.036      285.195   -141524.95 
     814   -60194.255   -59449.518       285.21   -141509.21 
     815   -60197.779   -59453.002      285.225   -141265.01 
     816    -60202.23   -59457.414       285.24   -140792.26 
     817   -60204.932   -59460.077      285.255   -140428.25 
     818   -60204.721   -59459.827       285.27   -140614.15 
     819   -60201.862   -59456.929      285.285   -140804.09 
     820    -60200.31   -59455.338        285.3   -140726.21 
     821    -60199.51   -59454.498      285.315   -140431.37 
     822   -60199.859   -59454.808       285.33   -140177.72 
     823   -60200.655   -59455.565      285.345   -140203.93 
     824   -60202.577   -59457.448       285.36   -140166.76 
     825   -60206.165   -59460.997      285.375   -139901.84 
     826   -60211.519   -59466.312       285.39    -139860.3 
     827   -60217.508   -59472.261      285.405   -140165.97 
     828   -60224.653   -59479.367       285.42   -140205.58 
     829   -60231.681   -59486.356      285.435   -139554.26 
     830   -60236.176   -59490.812       285.45   -139030.48 
     831   -60239.007   -59493.604      285.465   -138971.13 
     832   -60241.495   -59496.053       285.48   -138790.84 
     833   -60243.236   -59497.754      285.495   -138436.99 
     834   -60244.039   -59498.518       285.51   -138209.19 
     835    -60244.43    -59498.87      285.525   -138116.93 
     836   -60243.854   -59498.255       285.54   -137927.23 
     837   -60243.919   -59498.281      285.555   -137573.89 
     838   -60243.891   -59498.214       285.57   -137337.58 
     839   -60244.807   -59499.091      285.585    -137243.7 
     840   -60245.668   -59499.912        285.6   -137355.44 
     841   -60247.774   -59501.979      285.615   -137488.57 
     842   -60249.683   -59503.849       285.63   -137735.89 
     843   -60250.301   -59504.428      285.645   -137862.42 
     844   -60251.778   -59505.866       285.66   -137892.19 
     845   -60254.534   -59508.582      285.675   -137965.52 
     846   -60259.812   -59513.821       285.69   -137918.08 
     847   -60267.416   -59521.387      285.705   -137622.16 
     848   -60276.244   -59530.175       285.72   -137233.09 
     849   -60285.403   -59539.295      285.735   -136973.86 
     850   -60293.367   -59547.219       285.75   -136751.43 
     851   -60298.621   -59552.435      285.765   -136547.91 
     852   -60302.969   -59556.743       285.78    -136402.2 
     853   -60307.283   -59561.018      285.795   -136260.73 
     854    -60309.82   -59563.516       285.81   -136487.59 
     855   -60309.131   -59562.788      285.825   -136857.49 
     856    -60307.83   -59561.448       285.84   -137145.07 
     857   -60307.652   -59561.231      285.855   -137312.18 
     858   -60308.694   -59562.234       285.87   -137202.58 
     859    -60309.12    -59562.62      285.885   -136871.98 
     860   -60308.666   -59562.127        285.9   -136545.67 
     861   -60308.337   -59561.759      285.915   -136448.66 
     862   -60308.364   -59561.747       285.93   -136411.27 
     863   -60309.751   -59563.095      285.945   -136206.17 
     864   -60312.034   -59565.338       285.96   -135681.72 
     865   -60313.497   -59566.762      285.975    -135036.2 
     866   -60312.765   -59565.991       285.99   -134790.01 
     867   -60311.702   -59564.889      286.005   -134981.89 
     868   -60312.152     -59565.3       286.02   -134994.27 
     869   -60313.035   -59566.144      286.035   -134937.75 
     870    -60314.22   -59567.289       286.05   -135024.72 
     871    -60315.09    -59568.12      286.065   -135221.36 
     872   -60317.496   -59570.487       286.08   -135230.58 
     873   -60320.569   -59573.521      286.095   -135320.06 
     874    -60323.17   -59576.082       286.11   -135749.65 
     875   -60324.216    -59577.09      286.125   -136124.54 
     876   -60325.135   -59577.969       286.14   -135993.57 
     877   -60326.591   -59579.386      286.155   -135683.07 
     878   -60328.728   -59581.484       286.17    -135469.7 
     879   -60332.453    -59585.17      286.185   -135095.92 
     880   -60337.089   -59589.766        286.2   -134437.49 
     881   -60342.496   -59595.135      286.215    -133652.3 
     882   -60347.124   -59599.724       286.23   -132978.69 
     883   -60351.244   -59603.804      286.245   -132367.47 
     884   -60354.449    -59606.97       286.26   -131844.19 
     885   -60357.718   -59610.199      286.275   -131524.57 
     886   -60360.185   -59612.628       286.29   -131606.36 
     887   -60362.869   -59615.273      286.305   -131735.31 
     888   -60365.092   -59617.457       286.32   -131715.45 
     889   -60366.621   -59618.946      286.335   -131753.18 
     890   -60366.331   -59618.617       286.35    -131962.3 
     891   -60365.975   -59618.222      286.365   -131870.78 
     892   -60364.336   -59616.543       286.38   -131658.59 
     893   -60360.962    -59613.13      286.395   -131898.83 
     894   -60355.537   -59607.666       286.41   -131969.67 
     895   -60352.834   -59604.924      286.425   -131663.32 
     896   -60351.992   -59604.043       286.44   -131463.02 
     897   -60354.216   -59606.228      286.455   -131518.29 
     898   -60355.924   -59607.897       286.47   -131627.85 
     899   -60357.156   -59609.089      286.485   -131500.49 
     900   -60357.818   -59609.712        286.5   -131545.51 
     901    -60360.35   -59612.205      286.515   -131643.81 
     902   -60364.383   -59616.199       286.53   -131587.46 
     903   -60370.655   -59622.432      286.545   -131080.77 
     904   -60374.885   -59626.622       286.56   -130574.67 
     905   -60377.809   -59629.507      286.575   -130511.45 
     906   -60381.054   -59632.713       286.59   -130645.35 
     907   -60385.102   -59636.722      286.605   -130649.68 
     908    -60388.24   -59639.821       286.62    -130772.2 
     909   -60390.832   -59642.373      286.635   -130957.21 
     910   -60392.812   -59644.314       286.65   -131056.27 
     911   -60394.552   -59646.015      286.665   -130907.89 
     912   -60395.964   -59647.388       286.68   -130673.97 
     913    -60396.06   -59647.445      286.695   -130612.62 
     914   -60395.405   -59646.751       286.71   -130694.32 
     915   -60394.416   -59645.723      286.725   -130738.51 
     916   -60392.798   -59644.065       286.74   -130637.72 
     917   -60391.131   -59642.359      286.755   -130425.29 
     918   -60389.315   -59640.504       286.77    -130229.1 
     919   -60387.151   -59638.301      286.785   -130226.64 
     920   -60385.897   -59637.007        286.8   -130341.81 
     921   -60386.234   -59637.306      286.815    -130576.6 
     922   -60387.101   -59638.133       286.83   -130858.42 
     923   -60387.545   -59638.539      286.845   -131101.57 
     924   -60386.233   -59637.187       286.86   -131400.69 
     925   -60383.006   -59633.921      286.875   -131850.83 
     926   -60379.691   -59630.567       286.89   -132324.17 
     927    -60375.47   -59626.307      286.905   -132775.79 
     928   -60372.561   -59623.359       286.92   -133221.96 
     929   -60375.396   -59626.154      286.935   -133398.99 
     930   -60383.401    -59634.12       286.95   -133427.16 
     931   -60395.013   -59645.693      286.965   -133268.93 
     932   -60405.185   -59655.826       286.98   -132590.16 
     933   -60413.374   -59663.976      286.995   -132261.46 
     934   -60417.872   -59668.434       287.01   -132313.76 
     935   -60417.976   -59668.499      287.025   -132349.13 
     936    -60415.99   -59666.474       287.04      -132331 
     937     -60416.1   -59666.545      287.055   -132394.86 
     938    -60420.27   -59670.676       287.07   -131970.57 
     939   -60425.663   -59676.029      287.085   -131291.29 
     940   -60429.452   -59679.779        287.1   -130669.39 
     941   -60429.694   -59679.983      287.115   -130717.48 
     942   -60431.948   -59682.197       287.13   -130642.79 
     943   -60433.143   -59683.353      287.145   -130458.47 
     944   -60432.267   -59682.438       287.16   -130153.87 
     945   -60429.965   -59680.097      287.175   -129910.35 
     946   -60428.389   -59678.482       287.19   -129340.66 
     947   -60426.373   -59676.426      287.205   -128273.02 
     948   -60422.248   -59672.262       287.22   -127969.31 
     949    -60418.45   -59668.425      287.235   -128558.65 
     950   -60411.567   -59661.503       287.25   -129226.12 
     951   -60406.488   -59656.384      287.265   -128894.43 
     952    -60405.74   -59655.597       287.28   -128518.13 
     953   -60407.058   -59656.876      287.295   -128302.86 
     954   -60403.146   -59652.925       287.31   -127543.93 
     955   -60400.341   -59650.081      287.325    -127081.7 
     956   -60396.557   -59646.258       287.34   -127649.57 
     957    -60395.56   -59645.222      287.355   -128455.31 
     958   -60396.198   -59645.821       287.37   -128365.36 
     959   -60395.907    -59645.49      287.385   -127993.14 
     960    -60395.88   -59645.424        287.4   -128571.05 
     961   -60397.415    -59646.92      287.415   -129699.16 
     962   -60399.382   -59648.848       287.43   -130694.52 
     963   -60404.841   -59654.268      287.445   -130770.63 
     964   -60407.413   -59656.801       287.46   -130707.03 
     965   -60406.379   -59655.727      287.475   -130769.37 
     966   -60403.019   -59652.328       287.49   -130566.33 
     967    -60400.37    -59649.64      287.505   -130094.92 
     968   -60400.521   -59649.751       287.52      -130181 
     969   -60401.668    -59650.86      287.535   -130486.84 
     970    -60399.01   -59648.163       287.55   -130375.96 
     971   -60395.479   -59644.593      287.565   -130243.85 
     972   -60393.524   -59642.598       287.58    -130765.9 
     973   -60389.565     -59638.6      287.595   -131244.34 
     974   -60385.764    -59634.76       287.61   -131256.23 
     975   -60379.421   -59628.378      287.625   -131295.43 
     976   -60375.938   -59624.855       287.64   -131667.25 
     977   -60373.574   -59622.452      287.655   -131746.87 
     978   -60375.126   -59623.965       287.67   -131097.92 
     979   -60374.455   -59623.255      287.685   -130772.05 
     980    -60371.43   -59620.191        287.7   -130893.61 
     981   -60368.317   -59617.039      287.715   -131001.38 
     982   -60364.845   -59613.527       287.73   -130920.65 
     983    -60359.16   -59607.803      287.745   -130991.83 
     984    -60353.69   -59602.294       287.76   -131283.94 
     985   -60347.493   -59596.058      287.775   -131777.68 
     986   -60341.589   -59590.114       287.79    -131957.2 
     987   -60335.964   -59584.451      287.805   -131853.27 
     988   -60328.687   -59577.135       287.82    -131878.4 
     989   -60321.749   -59570.157      287.835   -131700.62 
     990   -60316.381    -59564.75       287.85    -131188.5 
     991   -60310.465   -59558.795      287.865   -130601.97 
     992   -60308.596   -59556.887       287.88   -130265.68 
     993   -60308.823   -59557.074      287.895   -130553.82 
     994   -60309.207    -59557.42       287.91   -130630.55 
     995   -60311.535   -59559.708      287.925   -130401.54 
     996   -60313.171   -59561.305       287.94   -130015.67 
     997   -60312.795    -59560.89      287.955   -129662.27 
     998   -60309.741   -59557.797       287.97    -129798.3 
     999   -60310.793    -59558.81      287.985   -129796.01 
    1000   -60316.026   -59564.003          288   -129734.38 
    1001   -60319.504   -59567.442      288.015   -130002.32 
    1002   -60326.988   -59574.888       288.03   -130634.92 
    1003   -60334.635   -59582.495      288.045   -131384.54 
    1004   -60337.778   -59585.599       288.06   -131535.28 
    1005    -60340.33   -59588.112      288.075   -131369.41 
    1006   -60344.737   -59592.479       288.09   -131377.42 
    1007   -60352.991   -59600.695      288.105   -131275.29 
    1008   -60356.847   -59604.511       288.12    -130887.2 
    1009   -60356.768   -59604.393      288.135   -130631.34 
    1010   -60359.779   -59607.364       288.15   -130805.39 
    1011    -60365.43   -59612.976      288.165   -130827.02 
    1012   -60366.365   -59613.872       288.18   -130475.75 
    1013   -60367.924   -59615.392      288.195   -130659.51 
    1014   -60370.303   -59617.732       288.21   -131153.56 
    1015   -60368.334   -59615.724      288.225   -130993.53 
    1016    -60365.32   -59612.671       288.24   -130554.66 
    1017   -60366.919    -59614.23      288.255   -130980.19 
    1018   -60368.584   -59615.856       288.27   -132077.97 
    1019    -60367.41   -59614.643      288.285    -132354.9 
    1020   -60369.673   -59616.867        288.3   -131872.78 
    1021   -60375.267   -59622.422      288.315   -131899.82 
    1022   -60377.072   -59624.187       288.33   -132274.58 
    1023   -60372.004   -59619.081      288.345   -132273.62 
    1024   -60369.011   -59616.048       288.36   -132138.33 
    1025   -60365.527   -59612.525      288.375   -132788.67 
    1026   -60355.395   -59602.354       288.39   -134134.64 
    1027   -60344.427   -59591.347      288.405   -134740.51 
    1028   -60336.469    -59583.35       288.42   -134661.27 
    1029   -60321.931   -59568.772      288.435   -134971.72 
    1030   -60306.839   -59553.641       288.45   -135604.06 
    1031   -60298.448   -59545.211      288.465   -135514.07 
    1032   -60295.207   -59541.931       288.48   -135063.85 
    1033   -60288.306   -59534.991      288.495   -134953.57 
    1034   -60282.814   -59529.459       288.51   -134861.85 
    1035   -60277.555   -59524.162      288.525   -134453.25 
    1036   -60270.588   -59517.155       288.54   -133448.11 
    1037   -60259.567   -59506.095      288.555   -132734.99 
    1038   -60254.322   -59500.811       288.57   -132980.44 
    1039    -60249.62    -59496.07      288.585    -133231.8 
    1040   -60248.081   -59494.492        288.6   -133185.57 
    1041   -60249.029     -59495.4      288.615   -132889.09 
    1042   -60247.686   -59494.018       288.63   -133526.66 
    1043   -60245.516   -59491.809      288.645   -134757.85 
    1044   -60238.349   -59484.603       288.66   -136688.53 
    1045    -60235.13   -59481.345      288.675   -137932.15 
    1046   -60231.457   -59477.632       288.69   -138361.86 
    1047   -60231.922   -59478.058      288.705   -138511.32 
    1048   -60231.012   -59477.109       288.72    -137615.2 
    1049    -60232.42   -59478.478      288.735   -137311.84 
    1050   -60232.202   -59478.221       288.75   -136156.06 
    1051   -60234.328   -59480.308      288.765   -135328.39 
    1052    -60229.67   -59475.611       288.78   -135001.06 
    1053   -60227.878    -59473.78      288.795   -134718.32 
    1054   -60222.149   -59468.012       288.81   -134883.04 
    1055    -60218.85   -59464.673      288.825   -135211.94 
    1056    -60216.28   -59462.064       288.84   -134623.88 
    1057   -60213.695    -59459.44      288.855   -135084.03 
    1058   -60209.416   -59455.122       288.87   -135811.13 
    1059   -60210.368   -59456.034      288.885   -135531.35 
    1060   -60207.715   -59453.343        288.9   -134589.13 
    1061   -60205.861   -59451.449      288.915   -134903.09 
    1062   -60206.611    -59452.16       288.93   -134988.16 
    1063   -60200.389   -59445.899      288.945   -135344.31 
    1064   -60204.261   -59449.731       288.96   -134717.28 
    1065   -60204.357   -59449.788      288.975   -134887.74 
    1066   -60204.766   -59450.158       288.99   -135000.13 
    1067   -60206.796   -59452.149      289.005    -134009.1 
    1068   -60207.549   -59452.863       289.02   -133595.75 
    1069   -60209.696    -59454.97      289.035   -133405.59 
    1070   -60207.182   -59452.418       289.05   -134138.69 
    1071   -60207.516   -59452.712      289.065    -134473.6 
    1072   -60205.972   -59451.129       289.08   -134611.72 
    1073   -60205.099   -59450.217      289.095   -134755.61 
    1074   -60208.879   -59453.958       289.11   -134531.69 
    1075   -60217.054   -59462.094      289.125   -133987.38 
    1076   -60228.451   -59473.451       289.14   -134000.26 
    1077   -60238.724   -59483.686      289.155   -134219.65 
    1078   -60250.552   -59495.474       289.17   -134454.14 
    1079   -60258.675   -59503.559      289.185   -134992.84 
    1080   -60270.889   -59515.733        289.2   -135186.12 
    1081   -60279.592   -59524.397      289.215   -133981.95 
    1082   -60282.539   -59527.305       289.23   -133167.76 
    1083   -60289.723    -59534.45      289.245   -132955.22 
    1084   -60299.251   -59543.939       289.26   -133468.33 
    1085   -60305.601   -59550.249      289.275   -133812.18 
    1086   -60307.726   -59552.335       289.29   -133234.37 
    1087   -60315.336   -59559.906      289.305   -132816.04 
    1088   -60317.364   -59561.894       289.32   -133143.73 
    1089   -60320.973   -59565.465      289.335   -133640.29 
    1090    -60325.15   -59569.602       289.35   -134060.51 
    1091   -60324.982   -59569.395      289.365   -134109.26 
    1092   -60321.766   -59566.139       289.38    -134179.2 
    1093   -60323.604   -59567.939      289.395    -133639.7 
    1094   -60323.564    -59567.86       289.41   -133377.86 
    1095   -60323.012   -59567.269      289.425   -134114.58 
    1096    -60321.29   -59565.507       289.44   -134377.63 
    1097    -60323.46   -59567.638      289.455   -134217.74 
    1098   -60324.676   -59568.815       289.47   -134325.11 
    1099   -60326.233   -59570.333      289.485   -134373.32 
    1100   -60327.232   -59571.293        289.5   -135089.41 
    1101   -60329.292   -59573.313      289.515   -134997.56 
    1102   -60330.623   -59574.605       289.53   -134828.58 
    1103   -60330.359   -59574.302      289.545   -134740.36 
    1104   -60331.326    -59575.23       289.56   -134775.53 
    1105   -60334.373   -59578.237      289.575   -134785.65 
    1106   -60338.092   -59581.918       289.59   -134335.22 
    1107   -60335.614     -59579.4      289.605   -134109.11 
    1108   -60329.843    -59573.59       289.62   -134368.78 
    1109   -60324.081   -59567.789      289.635    -135090.9 
    1110   -60317.855   -59561.524       289.65   -135009.27 
    1111   -60317.436   -59561.066      289.665   -134528.65 
    1112   -60320.191   -59563.782       289.68   -133850.44 
    1113    -60323.72   -59567.271      289.695   -133501.28 
    1114   -60320.936   -59564.448       289.71   -133560.21 
    1115   -60321.059   -59564.532      289.725   -133366.99 
    1116   -60324.351   -59567.785       289.74    -133115.9 
    1117   -60325.318   -59568.713      289.755   -132444.77 
    1118   -60326.485   -59569.841       289.77   -132396.96 
    1119   -60329.552   -59572.868      289.785   -132506.94 
    1120   -60333.695   -59576.972        289.8   -132225.33 
    1121   -60334.655   -59577.893      289.815   -131976.31 
    1122   -60334.733   -59577.932       289.83   -132216.08 
    1123   -60335.207   -59578.367      289.845   -132468.16 
    1124   -60335.122   -59578.242       289.86   -132420.39 
    1125   -60330.448   -59573.529      289.875   -132536.67 
    1126   -60325.289   -59568.331       289.89   -132751.73 
    1127    -60324.01   -59567.013      289.905    -133111.5 
    1128   -60319.794   -59562.758       289.92   -133040.83 
    1129   -60317.789   -59560.714      289.935   -133058.53 
    1130   -60320.005    -59562.89       289.95    -133585.6 
    1131   -60325.159   -59568.005      289.965    -134429.1 
    1132   -60330.156   -59572.964       289.98   -134456.61 
    1133   -60338.343   -59581.111      289.995   -133724.02 
    1134   -60346.918   -59589.647       290.01   -133100.09 
    1135   -60348.506   -59591.196      290.025    -133241.3 
    1136     -60348.6   -59591.251       290.04   -133249.45 
    1137   -60348.679   -59591.291      290.055   -132765.37 
    1138   -60347.854   -59590.426       290.07   -132836.95 
    1139   -60344.746   -59587.279      290.085    -133253.7 
    1140   -60344.955   -59587.449        290.1   -133058.06 
    1141   -60345.746   -59588.201      290.115   -132123.76 
    1142   -60343.782   -59586.197       290.13   -131890.63 
    1143   -60341.216   -59583.592      290.145   -132510.98 
    1144   -60340.249   -59582.586       290.16   -132605.11 
    1145   -60340.883   -59583.182      290.175   -132496.36 
    1146   -60341.524   -59583.783       290.19   -132528.95 
    1147     -60341.1    -59583.32      290.205   -132676.59 
    1148   -60345.044   -59587.225       290.22   -132568.31 
    1149   -60347.773   -59589.914      290.235   -132310.24 
    1150   -60348.983   -59591.085       290.25   -132096.59 
    1151   -60348.586   -59590.649      290.265   -131862.67 
    1152    -60347.94   -59589.964       290.28   -131631.38 
    1153   -60345.438   -59587.422      290.295   -131877.12 
    1154   -60343.743   -59585.689       290.31   -132382.27 
    1155   -60339.807   -59581.713      290.325   -132862.42 
    1156   -60339.806   -59581.673       290.34   -132678.07 
    1157   -60344.311   -59586.139      290.355   -132106.72 
    1158   -60351.117   -59592.906       290.37   -130807.83 
    1159   -60350.372   -59592.122      290.385   -130287.15 
    1160   -60352.782   -59594.492        290.4   -130293.03 
    1161   -60358.145   -59599.816      290.415   -130238.76 
    1162   -60365.956   -59607.589       290.43   -130193.42 
    1163   -60372.767    -59614.36      290.445    -130656.5 
    1164   -60376.753   -59618.307       290.46    -131131.1 
    1165   -60381.838   -59623.352      290.475    -131126.7 
    1166   -60385.911   -59627.386       290.49   -130172.16 
    1167   -60388.113   -59629.549      290.505   -129534.14 
    1168   -60391.123    -59632.52       290.52   -129327.45 
    1169   -60395.385   -59636.743      290.535    -129050.1 
    1170   -60398.362   -59639.681       290.55   -128757.87 
    1171   -60397.081   -59638.361      290.565   -128404.31 
    1172   -60399.752   -59640.993       290.58   -128310.21 
    1173   -60397.835   -59639.036      290.595   -128355.45 
    1174   -60395.695   -59636.857       290.61   -128513.01 
    1175   -60395.516   -59636.639      290.625   -128489.18 
    1176   -60394.112   -59635.196       290.64   -129049.83 
    1177   -60388.964   -59630.009      290.655   -129691.67 
    1178   -60386.954   -59627.959       290.67   -130085.11 
    1179   -60383.583    -59624.55      290.685   -129836.34 
    1180   -60382.105   -59623.032        290.7    -129799.5 
    1181   -60384.227   -59625.115      290.715   -130172.23 
    1182   -60386.365   -59627.214       290.73   -130805.44 
    1183   -60381.925   -59622.735      290.745   -130572.68 
    1184   -60380.884   -59621.654       290.76   -130008.51 
    1185   -60379.332   -59620.063      290.775   -129166.56 
    1186   -60368.942   -59609.634       290.79   -128847.79 
    1187   -60362.343   -59602.996      290.805   -128476.59 
    1188   -60365.007    -59605.62       290.82    -128231.5 
    1189   -60369.303   -59609.877      290.835   -127884.96 
    1190   -60366.683   -59607.219       290.85   -127393.68 
    1191   -60365.551   -59606.047      290.865   -127219.88 
    1192   -60366.277   -59606.734       290.88   -127800.13 
    1193   -60369.036   -59609.454      290.895   -127862.59 
    1194     -60368.9   -59609.279       290.91   -127996.95 
    1195   -60365.473   -59605.813      290.925   -128047.23 
    1196    -60364.39    -59604.69       290.94   -128105.68 
    1197   -60363.896   -59604.158      290.955   -127796.33 
    1198   -60362.842   -59603.064       290.97   -128366.62 
    1199   -60363.949   -59604.132      290.985   -127868.26 
    1200   -60363.334   -59603.478          291   -127981.12 
    1201   -60364.859   -59604.964      291.015   -128150.63 
    1202   -60357.641   -59597.707       291.03   -128998.58 
    1203   -60356.897   -59596.924      291.045   -129698.21 
    1204   -60351.611   -59591.598       291.06   -129630.09 
    1205   -60344.158   -59584.106      291.075   -129596.29 
    1206   -60342.027   -59581.936       291.09   -130128.41 
    1207    -60341.18   -59581.049      291.105   -129920.18 
    1208    -60336.08    -59575.91       291.12   -129625.07 
    1209   -60331.013   -59570.804      291.135   -129270.67 
    1210   -60324.799   -59564.552       291.15   -129149.99 
    1211   -60326.151   -59565.864      291.165   -128989.95 
    1212   -60320.728   -59560.401       291.18   -128986.86 
    1213   -60325.498   -59565.132      291.195   -127724.11 
    1214   -60323.958   -59563.554       291.21   -127588.74 
    1215   -60328.648   -59568.205      291.225   -127825.28 
    1216   -60325.916   -59565.434       291.24   -128313.75 
    1217   -60327.028   -59566.506      291.255    -128796.3 
    1218   -60321.324   -59560.763       291.27   -128663.68 
    1219   -60318.718   -59558.117      291.285   -128317.03 
    1220   -60329.371   -59568.732        291.3   -129097.99 
    1221   -60328.874   -59568.195      291.315   -129220.49 
    1222   -60331.304   -59570.587       291.33   -129219.74 
    1223   -60332.535   -59571.778      291.345   -128633.77 
    1224   -60337.593   -59576.796       291.36   -128693.66 
    1225   -60341.789   -59580.954      291.375    -128614.6 
    1226   -60346.495    -59585.62       291.39   -129081.35 
    1227   -60357.911   -59596.998      291.405    -129634.3 
    1228   -60359.694   -59598.741       291.42   -129897.86 
    1229   -60363.169   -59602.177      291.435    -129398.5 
    1230   -60363.812   -59602.781       291.45   -129303.75 
    1231   -60366.264   -59605.193      291.465   -129127.51 
    1232   -60374.978   -59613.868       291.48   -128988.89 
    1233   -60385.597   -59624.448      291.495   -129095.25 
    1234   -60390.384   -59629.196       291.51    -129332.9 
    1235   -60395.892   -59634.665      291.525   -129303.39 
    1236   -60401.317   -59640.051       291.54   -129338.74 
    1237   -60406.688   -59645.382      291.555   -129167.78 
    1238   -60406.879   -59645.534       291.57   -128473.11 
    1239   -60404.197   -59642.813      291.585   -128387.49 
    1240   -60402.144   -59640.721        291.6   -128547.24 
    1241   -60400.583   -59639.121      291.615   -128446.22 
    1242   -60395.157   -59633.656       291.63   -128431.97 
    1243   -60389.597   -59628.056      291.645   -128092.88 
    1244   -60385.344   -59623.765       291.66   -127942.96 
    1245   -60382.652   -59621.033      291.675   -128109.21 
    1246   -60377.556   -59615.898       291.69   -127961.43 
    1247   -60376.181   -59614.484      291.705   -127552.15 
    1248   -60372.384   -59610.648       291.72   -127310.59 
    1249   -60371.212   -59609.436      291.735   -127567.82 
    1250   -60367.003   -59605.189       291.75   -127790.35 
    1251   -60364.238   -59602.384      291.765    -127688.3 
    1252    -60361.44   -59599.547       291.78    -128288.8 
    1253   -60358.599   -59596.667      291.795   -129132.12 
    1254   -60363.029   -59601.058       291.81   -129058.08 
    1255   -60363.776   -59601.766      291.825    -128568.3 
    1256   -60365.381   -59603.331       291.84   -128346.33 
    1257   -60364.042   -59601.953      291.855    -128018.7 
    1258   -60365.653   -59603.525       291.87   -127223.82 
[...]
    4334   -60157.096    -59437.74       275.49   -129819.85 
    4335    -60156.05   -59436.733      275.475   -129793.12 
    4336   -60160.312   -59441.033       275.46   -129851.13 
    4337   -60165.466   -59446.227      275.445   -129542.46 
    4338   -60165.359   -59446.159       275.43      -128939 
    4339   -60163.742   -59444.581      275.415   -128519.17 
    4340    -60164.13   -59445.008        275.4    -128485.8 
    4341   -60166.738   -59447.655      275.385   -128796.91 
    4342   -60171.444     -59452.4       275.37   -129194.63 
    4343   -60173.786   -59454.781      275.355   -129567.18 
    4344   -60172.802   -59453.838       275.34   -129734.35 
    4345   -60175.805   -59456.879      275.325   -130050.27 
    4346   -60180.582   -59461.695       275.31    -130333.4 
    4347    -60180.45   -59461.602      275.295   -130354.73 
    4348   -60179.791   -59460.983       275.28   -129915.78 
    4349   -60180.851   -59462.082      275.265   -128978.66 
    4350   -60181.887   -59463.157       275.25    -128249.8 
    4351   -60184.363   -59465.673      275.235    -127977.2 
    4352   -60187.073   -59468.422       275.22   -127978.72 
    4353   -60186.813   -59468.201      275.205   -128171.68 
    4354   -60180.714   -59462.141       275.19   -128537.96 
    4355   -60174.382   -59455.848      275.175   -128636.38 
    4356   -60173.017   -59454.522       275.16   -128856.87 
    4357   -60168.412   -59449.956      275.145   -128680.24 
    4358   -60160.546   -59442.129       275.13   -128731.81 
    4359   -60152.693   -59434.316      275.115   -128735.79 
    4360   -60143.625   -59425.287        275.1   -129595.55 
    4361   -60130.037   -59411.738      275.085   -130809.55 
    4362   -60118.216   -59399.956       275.07   -131333.78 
    4363    -60110.49    -59392.27      275.055   -131036.15 
    4364   -60101.182   -59383.001       275.04   -130712.81 
    4365   -60093.369   -59375.226      275.025   -130918.83 
    4366   -60084.359   -59366.256       275.01   -131114.43 
    4367   -60075.712   -59357.648      274.995   -131637.99 
    4368   -60069.484   -59351.459       274.98   -131555.83 
    4369   -60067.163   -59349.177      274.965   -131585.37 
    4370   -60062.544   -59344.597       274.95   -131526.73 
    4371    -60056.28   -59338.373      274.935   -131980.28 
    4372   -60051.765   -59333.897       274.92   -132097.11 
    4373   -60048.142   -59330.313      274.905   -132034.92 
    4374    -60042.09     -59324.3       274.89   -132494.16 
    4375   -60038.361    -59320.61      274.875    -132688.5 
    4376   -60040.557   -59322.846       274.86   -132833.68 
    4377   -60046.021   -59328.348      274.845   -132079.52 
    4378   -60050.992   -59333.359       274.83   -131463.89 
    4379   -60055.208   -59337.614      274.815   -131190.56 
    4380   -60060.127   -59342.572        274.8    -131154.8 
    4381   -60062.687   -59345.171      274.785   -131595.68 
    4382   -60060.799   -59343.323       274.77   -132255.65 
    4383   -60064.499   -59347.062      274.755   -132105.47 
    4384   -60072.236   -59354.837       274.74   -132449.14 
    4385   -60081.286   -59363.927      274.725   -133101.18 
    4386   -60088.662   -59371.342       274.71   -133591.88 
    4387   -60097.021   -59379.741      274.695    -133897.7 
    4388   -60105.629   -59388.388       274.68   -133852.81 
    4389   -60115.253    -59398.05      274.665   -133271.22 
    4390   -60123.609   -59406.446       274.65   -133307.45 
    4391   -60132.837   -59415.713      274.635   -133083.15 
    4392   -60141.713   -59424.628       274.62   -132840.67 
    4393    -60149.08   -59432.034      274.605   -132455.65 
    4394   -60162.419   -59445.412       274.59   -131734.42 
    4395   -60175.722   -59458.754      274.575   -131842.86 
    4396   -60188.456   -59471.528       274.56   -132059.59 
    4397    -60199.03   -59482.141      274.545   -132080.97 
    4398   -60205.069   -59488.219       274.53   -132257.09 
    4399   -60214.273   -59497.463      274.515   -132521.28 
    4400   -60225.604   -59508.832        274.5   -132602.93 
    4401   -60235.363    -59518.63      274.485   -132404.16 
    4402   -60242.509   -59525.816       274.47   -132108.35 
    4403   -60248.837   -59532.183      274.455    -132231.7 
    4404   -60253.082   -59536.467       274.44   -132785.87 
    4405   -60254.856    -59538.28      274.425    -133292.9 
    4406   -60259.385   -59542.849       274.41   -133539.15 
    4407   -60264.648    -59548.15      274.395   -133727.92 
    4408   -60269.077   -59552.619       274.38   -134088.32 
    4409   -60273.393   -59556.974      274.365    -133992.2 
    4410   -60277.392   -59561.012       274.35   -133429.19 
    4411    -60279.65   -59563.309      274.335   -132688.11 
    4412   -60279.948   -59563.647       274.32   -132162.27 
    4413    -60277.82   -59561.558      274.305   -131700.14 
    4414   -60277.034    -59560.81       274.29    -131056.7 
    4415   -60275.671   -59559.487      274.275   -130429.73 
    4416   -60270.775    -59554.63       274.26   -130466.75 
    4417   -60263.287   -59547.181      274.245   -130963.23 
    4418   -60258.038   -59541.971       274.23   -131261.46 
    4419   -60254.913   -59538.885      274.215   -131499.29 
    4420   -60249.337   -59533.349        274.2   -132523.22 
    4421   -60240.219    -59524.27      274.185   -133454.25 
    4422   -60234.348   -59518.438       274.17   -133756.58 
    4423   -60230.446   -59514.576      274.155   -133109.51 
    4424   -60226.577   -59510.745       274.14   -132881.08 
    4425   -60224.217   -59508.425      274.125   -132542.48 
    4426   -60220.049   -59504.295       274.11   -132686.63 
    4427   -60213.146   -59497.432      274.095   -132714.86 
    4428    -60208.47   -59492.795       274.08   -132442.19 
    4429   -60206.455   -59490.819      274.065   -132136.85 
    4430   -60197.768   -59482.172       274.05    -132270.3 
    4431   -60189.226   -59473.668      274.035   -133309.85 
    4432   -60187.378    -59471.86       274.02   -133817.78 
    4433   -60183.053   -59467.574      274.005   -133340.08 
    4434   -60174.477   -59459.037       273.99   -133369.92 
    4435   -60168.298   -59452.897      273.975   -132705.27 
    4436   -60161.647   -59446.285       273.96   -131798.49 
    4437   -60159.789   -59444.466      273.945   -131475.33 
    4438   -60158.365   -59443.082       273.93   -132318.68 
    4439   -60151.633   -59436.389      273.915   -133049.06 
    4440    -60147.34   -59432.135        273.9   -132876.83 
    4441   -60147.456    -59432.29      273.885   -132034.85 
    4442   -60145.648   -59430.521       273.87   -131231.25 
    4443   -60144.593   -59429.506      273.855   -131283.74 
    4444   -60140.793   -59425.745       273.84   -131420.98 
    4445   -60138.843   -59423.834      273.825   -131633.96 
    4446   -60138.826   -59423.856       273.81   -131613.18 
    4447   -60142.905   -59427.974      273.795   -131277.05 
    4448   -60147.349   -59432.458       273.78   -131039.78 
    4449   -60146.833    -59431.98      273.765   -130666.86 
    4450   -60147.871   -59433.058       273.75   -130485.98 
    4451   -60150.348   -59435.574      273.735   -130578.25 
    4452   -60151.955    -59437.22       273.72   -131505.31 
    4453   -60153.515    -59438.82      273.705   -132146.26 
    4454    -60158.33   -59443.673       273.69   -132127.54 
    4455   -60161.176   -59446.559      273.675   -131764.33 
    4456   -60165.448    -59450.87       273.66    -132007.7 
    4457   -60173.901   -59459.362      273.645   -132476.71 
    4458   -60182.178   -59467.678       273.63   -132664.55 
    4459   -60190.892   -59476.431      273.615   -132216.99 
    4460   -60199.825   -59485.404        273.6   -131513.22 
    4461   -60209.241   -59494.858      273.585   -131004.46 
    4462   -60217.847   -59503.504       273.57   -130751.94 
    4463    -60225.15   -59510.846      273.555   -130599.69 
    4464   -60231.114   -59516.849       273.54   -130554.78 
    4465   -60232.673   -59518.447      273.525   -130919.26 
    4466   -60236.872   -59522.685       273.51   -131476.96 
    4467   -60246.896   -59532.748      273.495    -132031.1 
    4468   -60256.884   -59542.776       273.48   -132192.47 
    4469   -60263.448   -59549.379      273.465   -132009.14 
    4470   -60266.253   -59552.223       273.45   -131899.39 
    4471   -60268.635   -59554.645      273.435    -132006.8 
    4472   -60270.333   -59556.381       273.42   -132250.87 
    4473   -60271.462    -59557.55      273.405   -132370.04 
    4474   -60270.471   -59556.598       273.39   -132123.86 
    4475    -60267.69   -59553.856      273.375    -131626.5 
    4476   -60265.244    -59551.45       273.36   -131267.72 
    4477   -60260.954   -59547.199      273.345   -131160.56 
    4478    -60255.46   -59541.743       273.33   -130947.52 
    4479   -60251.408   -59537.731      273.315   -130543.24 
    4480   -60246.954   -59533.316        273.3    -130385.1 
    4481   -60241.543   -59527.944      273.285   -130592.77 
    4482   -60236.114   -59522.554       273.27   -131066.36 
    4483    -60231.14   -59517.619      273.255   -131583.64 
    4484   -60224.203   -59510.722       273.24   -131878.47 
    4485   -60217.224   -59503.781      273.225   -131367.25 
    4486   -60211.976   -59498.573       273.21    -130555.9 
    4487   -60205.161   -59491.798      273.195   -129295.16 
    4488   -60195.259   -59481.934       273.18   -128552.26 
    4489   -60187.522   -59474.236      273.165    -128254.4 
    4490   -60182.955   -59469.709       273.15   -128263.94 
    4491   -60181.665   -59468.457      273.135   -128846.03 
    4492   -60178.848   -59465.679       273.12   -130471.26 
    4493    -60173.63   -59460.501      273.105   -131792.04 
    4494   -60171.451   -59458.361       273.09   -132415.75 
    4495   -60170.034   -59456.984      273.075   -131795.09 
    4496   -60167.226   -59454.215       273.06   -131062.44 
    4497   -60163.651   -59450.679      273.045    -130332.3 
    4498   -60159.595   -59446.662       273.03    -129850.1 
    4499   -60155.652   -59442.758      273.015   -129955.74 
    4500   -60150.319   -59437.464          273   -130068.49 
Loop time of 80.487 on 32 procs for 2000 steps with 877 atoms

Performance: 0.537 ns/day, 44.715 hours/ns, 24.849 timesteps/s
85.1% CPU use with 32 MPI tasks x 1 OpenMP threads

MPI task timing breakdown:
Section |  min time  |  avg time  |  max time  |%varavg| %total
---------------------------------------------------------------
Pair    | 3.1328     | 6.757      | 13.218     |  95.5 |  8.40
Neigh   | 0.085529   | 0.47765    | 0.95374    |  37.9 |  0.59
Comm    | 1.8729     | 9.8977     | 21.354     | 163.1 | 12.30
Output  | 14.495     | 15.851     | 17.346     |  21.9 | 19.69
Modify  | 31.771     | 47.496     | 58.642     |  95.7 | 59.01
Other   |            | 0.007555   |            |       |  0.01

Nlocal:        27.4062 ave          68 max           0 min
Histogram: 8 2 1 7 4 1 2 2 1 4
Nghost:        882.719 ave        1303 max         373 min
Histogram: 4 0 3 4 1 5 6 1 2 6
Neighs:        6429.59 ave       19349 max           0 min
Histogram: 10 1 5 7 0 3 0 3 0 3

Total # of neighbors = 205747
Ave neighs/atom = 234.60319
Neighbor list builds = 200
Dangerous builds not checked
unfix           1
unfix           2
unfix           3

# NVE stabilization
 fix             1 all nve
 fix             2 all qeq/reax 1 0.0 10.0 1e-6 param.qeq
 fix             3 all temp/berendsen 273.0 273.0 0.25
 thermo          1
 thermo_style    custom step epair etotal temp press
 timestep        0.25
 run             100
Neighbor list info ...
  update every 10 steps, delay 0 steps, check no
  max neighbors/atom: 2000, page size: 100000
  master list distance cutoff = 12
  ghost atom cutoff = 12
  binsize = 6, bins = 2 11 11
  2 neighbor lists, perpetual/occasional/extra = 2 0 0
  (1) pair reax/c, perpetual
      attributes: half, newton off, ghost
      pair build: half/bin/newtoff/ghost
      stencil: half/ghost/bin/3d/newtoff
      bin: standard
  (2) fix qeq/reax, perpetual, copy from (1)
      attributes: half, newton off, ghost
      pair build: copy
      stencil: none
      bin: none
Per MPI rank memory allocation (min/avg/max) = 18.74 | 33.60 | 45.36 Mbytes
Step E_pair TotEng Temp Press 
    4500   -60150.307   -59437.452          273    -130068.5 
    4501   -60148.018   -59435.163          273    -129791.2 
    4502   -60145.689   -59432.834          273   -129082.78 
    4503   -60139.791   -59426.936          273   -128325.96 
    4504   -60134.357   -59421.502          273   -128479.44 
    4505   -60128.086   -59415.231          273    -129057.3 
    4506   -60120.982   -59408.127          273    -129765.1 
    4507   -60115.556   -59402.701          273   -130519.19 
    4508   -60110.109   -59397.255          273   -131546.96 
    4509   -60103.147   -59390.292          273   -132440.28 
    4510   -60095.321   -59382.466          273   -133104.37 
    4511   -60088.733   -59375.878          273   -133198.72 
    4512   -60082.744   -59369.889          273      -132734 
    4513   -60073.972   -59361.117          273   -132082.26 
    4514   -60067.211   -59354.356          273   -131531.21 
    4515   -60068.418   -59355.563          273   -131115.13 
    4516   -60070.306   -59357.451          273   -130365.93 
    4517   -60070.424   -59357.569          273   -129526.03 
    4518   -60070.989   -59358.134          273   -129107.83 
    4519   -60072.854       -59360          273   -129266.09 
    4520   -60074.315    -59361.46          273   -129705.06 
    4521   -60076.619   -59363.765          273   -129883.68 
    4522   -60080.557   -59367.702          273   -129952.96 
    4523   -60081.229   -59368.374          273   -130194.56 
    4524   -60082.182   -59369.328          273   -130581.67 
    4525   -60086.941   -59374.086          273   -131009.61 
    4526   -60091.506   -59378.651          273   -130968.12 
    4527   -60094.229   -59381.374          273   -130675.31 
    4528   -60099.029   -59386.175          273   -130521.11 
    4529   -60107.065    -59394.21          273   -130553.61 
    4530   -60116.115    -59403.26          273    -130617.8 
    4531   -60122.438   -59409.583          273    -130497.6 
    4532    -60126.07   -59413.216          273   -130166.76 
    4533   -60131.989   -59419.134          273   -130175.04 
    4534   -60140.549   -59427.694          273   -130601.02 
    4535   -60147.689   -59434.834          273   -130977.18 
    4536   -60151.285    -59438.43          273   -131082.06 
    4537   -60154.749   -59441.894          273   -131317.41 
    4538   -60161.521   -59448.666          273   -131516.14 
    4539   -60168.497   -59455.643          273   -131165.44 
    4540    -60171.56   -59458.706          273   -130208.03 
    4541   -60174.227   -59461.372          273   -129475.93 
    4542   -60182.388   -59469.533          273   -129210.23 
    4543   -60193.857   -59481.003          273   -129184.19 
    4544   -60206.806   -59493.952          273   -129264.25 
    4545   -60215.907   -59503.053          273   -129179.31 
    4546   -60224.771   -59511.916          273    -129309.2 
    4547   -60235.103   -59522.248          273   -129532.93 
    4548    -60242.69   -59529.835          273   -128293.57 
    4549   -60244.228   -59531.373          273   -128100.56 
    4550   -60245.617   -59532.762          273   -127263.94 
    4551   -60249.783   -59536.928          273   -127662.53 
    4552   -60253.283   -59540.428          273   -128567.39 
    4553   -60250.107   -59537.252          273   -128451.92 
    4554   -60251.583   -59538.728          273   -128588.06 
    4555   -60251.244    -59538.39          273   -128905.01 
    4556   -60259.027   -59546.172          273   -127995.47 
    4557    -60260.62   -59547.765          273   -128560.52 
    4558   -60264.211   -59551.356          273   -128823.15 
    4559   -60254.454     -59541.6          273   -130204.55 
    4560   -60258.311   -59545.456          273    -130109.3 
    4561   -60257.888   -59545.033          273   -128947.57 
    4562   -60251.738   -59538.884          273   -128069.18 
    4563   -60245.456   -59532.601          273   -127557.97 
    4564   -60243.156   -59530.301          273   -127068.81 
    4565   -60243.625   -59530.771          273   -126890.56 
    4566   -60242.829   -59529.974          273   -127638.99 
    4567   -60236.724   -59523.869          273   -128290.05 
    4568   -60230.807   -59517.952          273   -128689.17 
    4569   -60224.654     -59511.8          273   -128723.07 
    4570   -60217.533   -59504.679          273   -129308.13 
    4571   -60211.093   -59498.238          273   -129988.79 
    4572   -60206.009   -59493.154          273   -130312.37 
    4573   -60200.052   -59487.197          273   -130603.75 
    4574   -60191.528   -59478.674          273   -131380.58 
    4575   -60182.815    -59469.96          273    -131860.6 
    4576   -60177.624   -59464.769          273   -131706.81 
    4577   -60174.386   -59461.531          273   -131219.05 
    4578   -60170.716   -59457.861          273   -130981.52 
    4579   -60165.984   -59453.129          273   -131015.08 
    4580   -60167.239   -59454.384          273   -130609.89 
    4581   -60172.387   -59459.533          273   -129878.22 
    4582   -60176.963   -59464.108          273   -129395.63 
    4583   -60177.254   -59464.399          273   -129081.42 
    4584   -60176.151   -59463.297          273   -128386.64 
    4585   -60174.931   -59462.076          273   -127674.08 
    4586   -60174.597   -59461.742          273   -127553.97 
    4587   -60173.334   -59460.479          273   -128004.72 
    4588   -60171.164   -59458.309          273   -128309.47 
    4589   -60170.056   -59457.201          273   -128288.96 
    4590   -60171.733   -59458.879          273   -128335.88 
    4591   -60180.547   -59467.693          273   -128704.34 
    4592   -60188.652   -59475.798          273   -129094.97 
    4593   -60195.191   -59482.336          273   -129131.37 
    4594   -60199.917   -59487.062          273   -128464.74 
    4595   -60206.096   -59493.241          273   -127891.49 
    4596   -60211.602   -59498.747          273   -127485.87 
    4597   -60217.118   -59504.263          273   -127012.52 
    4598   -60216.881   -59504.026          273   -127702.02 
    4599    -60229.59   -59516.735          273   -127569.66 
    4600   -60236.787   -59523.932          273   -127519.31 
Loop time of 3.34191 on 32 procs for 100 steps with 877 atoms

Performance: 0.646 ns/day, 37.132 hours/ns, 29.923 timesteps/s
85.4% CPU use with 32 MPI tasks x 1 OpenMP threads

MPI task timing breakdown:
Section |  min time  |  avg time  |  max time  |%varavg| %total
---------------------------------------------------------------
Pair    | 0.15922    | 0.33485    | 0.62001    |  21.1 | 10.02
Neigh   | 0.0043178  | 0.02478    | 0.059222   |   9.0 |  0.74
Comm    | 0.086415   | 0.41414    | 1.0557     |  37.9 | 12.39
Output  | 0.72625    | 0.80509    | 0.86342    |   5.5 | 24.09
Modify  | 0.79853    | 1.7626     | 2.2135     |  24.1 | 52.74
Other   |            | 0.0004232  |            |       |  0.01

Nlocal:        27.4062 ave          68 max           0 min
Histogram: 8 2 2 6 4 1 2 2 0 5
Nghost:        883.656 ave        1307 max         379 min
Histogram: 4 0 3 4 1 5 6 1 2 6
Neighs:        6436.72 ave       19344 max           0 min
Histogram: 10 1 5 7 0 3 0 3 0 3

Total # of neighbors = 205975
Ave neighs/atom = 234.86317
Neighbor list builds = 10
Dangerous builds not checked
 unfix           1
 unfix           2
 unfix           3


Please see the log.cite file for references relevant to this simulation

Total wall time: 0:03:33
